
  ___ ___ ___ _ _ _  
 |   |   |_  | | | | 
 | | | | | . | | | | 
 |__ |  _|___|_____|  22.8.0
 |___|_|             

User:   jesfra@vera36-2
Date:   Fri Feb 24 15:41:14 2023
Arch:   x86_64
Pid:    1338438
CWD:    /cephyr/users/jesfra/Vera/A4
Python: 3.10.4
gpaw:   /apps/Arch/software/GPAW/22.8.0-foss-2022a/lib/python3.10/site-packages/gpaw
_gpaw:  /apps/Arch/software/GPAW/22.8.0-foss-2022a/lib/python3.10/site-packages/
        _gpaw.cpython-310-x86_64-linux-gnu.so
ase:    /apps/Arch/software/ASE/3.22.1-foss-2022a/lib/python3.10/site-packages/ase (version 3.22.1)
numpy:  /apps/Arch/software/SciPy-bundle/2022.05-foss-2022a/lib/python3.10/site-packages/numpy (version 1.22.3)
scipy:  /apps/Arch/software/SciPy-bundle/2022.05-foss-2022a/lib/python3.10/site-packages/scipy (version 1.8.1)
libxc:  5.2.3
units:  Angstrom and eV
cores: 32
OpenMP: False
OMP_NUM_THREADS: 1

Input parameters:
  kpts: [4 4 1]
  mode: {ecut: 450.00000000000006,
         name: pw}
  xc: PBE

System changes: positions, numbers, cell, pbc, initial_charges, initial_magmoms 

Initialize ...

species:
  Au:
    name: Gold
    id: b12133f335f6ca0d89c4b1ccaa844e9a
    Z: 79.0
    valence: 11
    core: 68
    charge: 0.0
    file: /apps/Common/software/GPAW-setups/0.9.20000/Au.PBE.gz
    compensation charges: {type: gauss,
                           rc: 0.42,
                           lmax: 2}
    cutoffs: {filter: 2.33,
              core: 2.81}
    valence states:
      #              energy  rcut
      - 6s(1.00)    -5.728   1.323
      - 6p(0.00)    -0.775   1.323
      - 5d(10.00)    -6.891   1.323
      -  s          21.484   1.323
      -  p          26.436   1.323
      -  d          20.321   1.323
  
    # Using partial waves for Au as LCAO basis

Reference energy: -13948153.319951  # eV

Spin-paired calculation

Convergence criteria:
 Maximum [total energy] change in last 3 cyles: 0.0005 eV / electron
 Maximum integral of absolute [dens]ity change: 0.0001 electrons / valence electron
 Maximum integral of absolute [eigenst]ate change: 4e-08 eV^2 / valence electron
 Maximum number of scf [iter]ations: 333
 (Square brackets indicate name in SCF output, whereas a 'c' in
 the SCF output indicates the quantity has converged.)

Symmetries present (total): 6

  ( 1  0  0)  ( 1 -1  0)  ( 0  1  0)  ( 0 -1  0)  (-1  1  0)  (-1  0  0)
  ( 0  1  0)  ( 0 -1  0)  ( 1  0  0)  ( 1 -1  0)  (-1  0  0)  (-1  1  0)
  ( 0  0  1)  ( 0  0  1)  ( 0  0  1)  ( 0  0  1)  ( 0  0  1)  ( 0  0  1)
Note: your k-points are not as symmetric as your crystal!

16 k-points: 4 x 4 x 1 Monkhorst-Pack grid
6 k-points in the irreducible part of the Brillouin zone
       k-points in crystal coordinates                weights
   0:     0.12500000   -0.12500000    0.00000000          2/16
   1:     0.12500000    0.12500000    0.00000000          2/16
   2:     0.37500000   -0.37500000    0.00000000          2/16
   3:     0.37500000   -0.12500000    0.00000000          4/16
   4:     0.37500000    0.12500000    0.00000000          4/16
   5:     0.37500000    0.37500000    0.00000000          2/16

Wave functions: Plane wave expansion
  Cutoff energy: 450.000 eV
  Number of coefficients (min, max): 24805, 24847
  Pulay-stress correction: 0.000000 eV/Ang^3 (de/decut=0.000000)
  Using FFTW library
  ScaLapack parameters: grid=1x1, blocksize=None
  Wavefunction extrapolation:
    Improved wavefunction reuse through dual PAW basis 

Occupation numbers: Fermi-Dirac:
  width: 0.1000  # eV
 

Eigensolver
   Davidson(niter=2) 

Densities:
  Coarse grid: 45*45*84 grid
  Fine grid: 90*90*168 grid
  Total Charge: 0.000000 

Density mixing:
  Method: separate
  Backend: pulay
  Linear mixing parameter: 0.05
  old densities: 5
  Damping of long wavelength oscillations: 50 

Hamiltonian:
  XC and Coulomb potentials evaluated on a 90*90*168 grid
  Using the PBE Exchange-Correlation functional
  External potential:
    NoExternalPotential
 

XC parameters: PBE with 2 nearest neighbor stencil

Memory estimate:
  Process memory now: 302.69 MiB
  Calculator: 298.17 MiB
    Density: 4.60 MiB
      Arrays: 2.12 MiB
      Localized functions: 1.64 MiB
      Mixer: 0.85 MiB
    Hamiltonian: 1.42 MiB
      Arrays: 1.38 MiB
      XC: 0.00 MiB
      Poisson: 0.00 MiB
      vbar: 0.03 MiB
    Wavefunctions: 292.15 MiB
      Arrays psit_nG: 208.15 MiB
      Eigensolver: 76.39 MiB
      Projections: 0.25 MiB
      Projectors: 0.53 MiB
      PW-descriptor: 6.83 MiB

Total number of cores used: 32
Parallelization over k-points: 2
Domain decomposition: 2 x 2 x 4

Number of atoms: 27
Number of atomic orbitals: 243
Number of bands in calculation: 183
Number of valence electrons: 297
Bands to converge: occupied

... initialized

Initializing position-dependent things.

Density initialized from atomic densities
Creating initial wave functions:
  183 bands from LCAO basis set

                                              
                                              
                                              
                                              
                                              
                  Au     Au     Au            
                                              
            Au     AAu    AAu    Au           
       Au     Au     AAu    Au                
                                              
        Au     Au     AAu    Au     Au        
                                              
                 Au     Au     Au             
                                              
           Au      Au     Au                  
                                              
                                              
                                              
                                              

Positions:
   0 Au     1.477500    0.853035    6.000000    ( 0.0000,  0.0000,  0.0000)
   1 Au     4.432499    0.853035    6.000000    ( 0.0000,  0.0000,  0.0000)
   2 Au     7.387498    0.853035    6.000000    ( 0.0000,  0.0000,  0.0000)
   3 Au     2.954999    3.412139    6.000000    ( 0.0000,  0.0000,  0.0000)
   4 Au     5.909998    3.412139    6.000000    ( 0.0000,  0.0000,  0.0000)
   5 Au     8.864998    3.412139    6.000000    ( 0.0000,  0.0000,  0.0000)
   6 Au     4.432499    5.971244    6.000000    ( 0.0000,  0.0000,  0.0000)
   7 Au     7.387498    5.971244    6.000000    ( 0.0000,  0.0000,  0.0000)
   8 Au    10.342497    5.971244    6.000000    ( 0.0000,  0.0000,  0.0000)
   9 Au    -0.000000    1.706070    8.412747    ( 0.0000,  0.0000,  0.0000)
  10 Au     2.954999    1.706070    8.412747    ( 0.0000,  0.0000,  0.0000)
  11 Au     5.909998    1.706070    8.412747    ( 0.0000,  0.0000,  0.0000)
  12 Au     1.477500    4.265174    8.412747    ( 0.0000,  0.0000,  0.0000)
  13 Au     4.432499    4.265174    8.412747    ( 0.0000,  0.0000,  0.0000)
  14 Au     7.387498    4.265174    8.412747    ( 0.0000,  0.0000,  0.0000)
  15 Au     2.954999    6.824278    8.412747    ( 0.0000,  0.0000,  0.0000)
  16 Au     5.909998    6.824278    8.412747    ( 0.0000,  0.0000,  0.0000)
  17 Au     8.864998    6.824278    8.412747    ( 0.0000,  0.0000,  0.0000)
  18 Au     0.000000    0.000000   10.825494    ( 0.0000,  0.0000,  0.0000)
  19 Au     2.954999    0.000000   10.825494    ( 0.0000,  0.0000,  0.0000)
  20 Au     5.909998    0.000000   10.825494    ( 0.0000,  0.0000,  0.0000)
  21 Au     1.477500    2.559104   10.825494    ( 0.0000,  0.0000,  0.0000)
  22 Au     4.432499    2.559104   10.825494    ( 0.0000,  0.0000,  0.0000)
  23 Au     7.387498    2.559104   10.825494    ( 0.0000,  0.0000,  0.0000)
  24 Au     2.954999    5.118209   10.825494    ( 0.0000,  0.0000,  0.0000)
  25 Au     5.909998    5.118209   10.825494    ( 0.0000,  0.0000,  0.0000)
  26 Au     8.864998    5.118209   10.825494    ( 0.0000,  0.0000,  0.0000)

Unit cell:
           periodic     x           y           z      points  spacing
  1. axis:    yes    8.864998    0.000000    0.000000    45     0.1706
  2. axis:    yes    4.432499    7.677313    0.000000    45     0.1706
  3. axis:    no     0.000000    0.000000   16.825494    84     0.2003

  Lengths:   8.864998   8.864998  16.825494
  Angles:   90.000000  90.000000  60.000000

Effective grid spacing dv^(1/3) = 0.1888

     iter     time        total  log10-change:
                         energy  eigst   dens
iter:   1 15:41:27   -85.462363
iter:   2 15:41:31   -84.102137  -1.83  -1.35
iter:   3 15:41:34   -79.181384  -1.30  -1.37
iter:   4 15:41:37   -78.972704  -2.67  -1.78
iter:   5 15:41:41   -78.926519  -2.28  -1.86
iter:   6 15:41:44   -79.437268  -2.44  -2.12
iter:   7 15:41:47   -78.902126  -2.05  -2.01
iter:   8 15:41:50   -78.886891  -3.53  -2.48
iter:   9 15:41:54   -78.842413c -3.01  -2.49
iter:  10 15:41:57   -78.824707c -3.69  -2.81
iter:  11 15:42:00   -78.824721c -5.08  -3.39
iter:  12 15:42:03   -78.824677c -5.74  -3.39
iter:  13 15:42:07   -78.824381c -5.41  -3.40
iter:  14 15:42:10   -78.825308c -4.85  -3.60
iter:  15 15:42:13   -78.824803c -5.91  -3.60
iter:  16 15:42:16   -78.824433c -6.00  -3.93
iter:  17 15:42:20   -78.824330c -5.93  -4.00
iter:  18 15:42:23   -78.824251c -6.79  -4.11c
iter:  19 15:42:26   -78.824239c -6.66  -4.24c
iter:  20 15:42:29   -78.824240c -6.60  -4.42c
iter:  21 15:42:33   -78.824220c -7.38  -4.47c
iter:  22 15:42:36   -78.824222c -8.61c -4.86c

Converged after 22 iterations.

Dipole moment: (-0.121001, -0.069860, -0.000000) |e|*Ang

Energy contributions relative to reference atoms: (reference = -13948153.319951)

Kinetic:       -307.075149
Potential:     +248.108942
External:        +0.000000
XC:             -22.710502
Entropy (-ST):   -0.275322
Local:           +2.990148
--------------------------
Free energy:    -78.961883
Extrapolated:   -78.824222

Showing only first 2 kpts
 Kpt  Band  Eigenvalues  Occupancy
  0   146     -0.38523    1.99999
  0   147     -0.38523    1.99999
  0   148      0.31402    1.98655
  0   149      0.31403    1.98655

  1   146     -0.56298    2.00000
  1   147     -0.37456    1.99999
  1   148     -0.37456    1.99999
  1   149     -0.19042    1.99991


Fermi level: 0.81355

No gap

Forces in eV/Ang:
  0 Au   -0.00000   -0.00000   -0.04100
  1 Au   -0.00000    0.00000   -0.04100
  2 Au    0.00000   -0.00000   -0.04100
  3 Au    0.00000   -0.00000   -0.04100
  4 Au   -0.00000   -0.00000   -0.04100
  5 Au    0.00000   -0.00000   -0.04100
  6 Au    0.00000    0.00000   -0.04100
  7 Au   -0.00000    0.00000   -0.04100
  8 Au    0.00000    0.00000   -0.04100
  9 Au   -0.00000   -0.00001    0.00000
 10 Au    0.00000    0.00000   -0.00000
 11 Au   -0.00000    0.00000   -0.00000
 12 Au    0.00001   -0.00000   -0.00000
 13 Au    0.00000   -0.00000   -0.00000
 14 Au   -0.00001   -0.00000   -0.00000
 15 Au    0.00001    0.00001    0.00000
 16 Au   -0.00001    0.00001    0.00000
 17 Au    0.00000    0.00001   -0.00000
 18 Au    0.00000    0.00000    0.04100
 19 Au   -0.00000    0.00000    0.04100
 20 Au    0.00000    0.00000    0.04100
 21 Au    0.00000   -0.00001    0.04100
 22 Au    0.00000    0.00000    0.04100
 23 Au   -0.00000   -0.00001    0.04100
 24 Au    0.00001    0.00000    0.04100
 25 Au   -0.00001    0.00000    0.04100
 26 Au    0.00000    0.00000    0.04101

System changes: positions 

Initializing position-dependent things.

Density initialized from wave functions
                                              
                                              
                                              
                                              
                                              
                  Au     Au     Au            
                                              
            Au     AAu    AAu    Au           
       Au     Au     AAu    Au                
                                              
        Au     Au     AAu    Au     Au        
                                              
                 Au     Au     Au             
                                              
           Au      Au     Au                  
                                              
                                              
                                              
                                              

Positions:
   0 Au     1.477500    0.853035    5.999414    ( 0.0000,  0.0000,  0.0000)
   1 Au     4.432499    0.853035    5.999414    ( 0.0000,  0.0000,  0.0000)
   2 Au     7.387498    0.853035    5.999414    ( 0.0000,  0.0000,  0.0000)
   3 Au     2.954999    3.412139    5.999414    ( 0.0000,  0.0000,  0.0000)
   4 Au     5.909998    3.412139    5.999414    ( 0.0000,  0.0000,  0.0000)
   5 Au     8.864998    3.412139    5.999414    ( 0.0000,  0.0000,  0.0000)
   6 Au     4.432499    5.971244    5.999414    ( 0.0000,  0.0000,  0.0000)
   7 Au     7.387498    5.971244    5.999414    ( 0.0000,  0.0000,  0.0000)
   8 Au    10.342497    5.971244    5.999414    ( 0.0000,  0.0000,  0.0000)
   9 Au    -0.000000    1.706069    8.412747    ( 0.0000,  0.0000,  0.0000)
  10 Au     2.954999    1.706070    8.412747    ( 0.0000,  0.0000,  0.0000)
  11 Au     5.909998    1.706070    8.412747    ( 0.0000,  0.0000,  0.0000)
  12 Au     1.477500    4.265174    8.412747    ( 0.0000,  0.0000,  0.0000)
  13 Au     4.432499    4.265174    8.412747    ( 0.0000,  0.0000,  0.0000)
  14 Au     7.387498    4.265174    8.412747    ( 0.0000,  0.0000,  0.0000)
  15 Au     2.954999    6.824278    8.412747    ( 0.0000,  0.0000,  0.0000)
  16 Au     5.909998    6.824278    8.412747    ( 0.0000,  0.0000,  0.0000)
  17 Au     8.864998    6.824279    8.412747    ( 0.0000,  0.0000,  0.0000)
  18 Au     0.000000    0.000000   10.826079    ( 0.0000,  0.0000,  0.0000)
  19 Au     2.954999    0.000000   10.826079    ( 0.0000,  0.0000,  0.0000)
  20 Au     5.909999    0.000000   10.826079    ( 0.0000,  0.0000,  0.0000)
  21 Au     1.477500    2.559104   10.826079    ( 0.0000,  0.0000,  0.0000)
  22 Au     4.432499    2.559104   10.826079    ( 0.0000,  0.0000,  0.0000)
  23 Au     7.387498    2.559104   10.826079    ( 0.0000,  0.0000,  0.0000)
  24 Au     2.954999    5.118209   10.826079    ( 0.0000,  0.0000,  0.0000)
  25 Au     5.909998    5.118209   10.826079    ( 0.0000,  0.0000,  0.0000)
  26 Au     8.864998    5.118209   10.826079    ( 0.0000,  0.0000,  0.0000)

Unit cell:
           periodic     x           y           z      points  spacing
  1. axis:    yes    8.864998    0.000000    0.000000    45     0.1706
  2. axis:    yes    4.432499    7.677313    0.000000    45     0.1706
  3. axis:    no     0.000000    0.000000   16.825494    84     0.2003

  Lengths:   8.864998   8.864998  16.825494
  Angles:   90.000000  90.000000  60.000000

Effective grid spacing dv^(1/3) = 0.1888

     iter     time        total  log10-change:
                         energy  eigst   dens
iter:   1 15:42:40   -78.825200  -5.18
iter:   2 15:42:43   -78.824956  -6.89  -3.66
iter:   3 15:42:47   -78.824678c -5.76  -3.82
iter:   4 15:42:50   -78.824683c -7.20  -4.58c
iter:   5 15:42:53   -78.824686c -8.36c -4.58c

Converged after 5 iterations.

Dipole moment: (-0.120805, -0.069747, 0.000000) |e|*Ang

Energy contributions relative to reference atoms: (reference = -13948153.319951)

Kinetic:       -307.654081
Potential:     +248.637401
External:        +0.000000
XC:             -22.670238
Entropy (-ST):   -0.275223
Local:           +2.999843
--------------------------
Free energy:    -78.962298
Extrapolated:   -78.824686

Showing only first 2 kpts
 Kpt  Band  Eigenvalues  Occupancy
  0   146     -0.38579    1.99999
  0   147     -0.38579    1.99999
  0   148      0.31357    1.98653
  0   149      0.31357    1.98653

  1   146     -0.56377    2.00000
  1   147     -0.37519    1.99999
  1   148     -0.37519    1.99999
  1   149     -0.19104    1.99991


Fermi level: 0.81291

No gap

Forces in eV/Ang:
  0 Au   -0.00000   -0.00000   -0.03521
  1 Au    0.00000   -0.00000   -0.03521
  2 Au    0.00000   -0.00000   -0.03521
  3 Au   -0.00000    0.00000   -0.03521
  4 Au    0.00000    0.00000   -0.03521
  5 Au   -0.00000    0.00000   -0.03521
  6 Au    0.00000    0.00000   -0.03521
  7 Au    0.00000   -0.00000   -0.03521
  8 Au   -0.00000   -0.00000   -0.03521
  9 Au    0.00000    0.00000   -0.00000
 10 Au   -0.00000   -0.00000   -0.00000
 11 Au    0.00000   -0.00000   -0.00000
 12 Au   -0.00000    0.00000    0.00000
 13 Au    0.00000    0.00000   -0.00000
 14 Au    0.00000    0.00000    0.00000
 15 Au   -0.00000   -0.00000   -0.00000
 16 Au    0.00000   -0.00000   -0.00000
 17 Au    0.00000   -0.00000    0.00000
 18 Au    0.00000    0.00000    0.03521
 19 Au    0.00000   -0.00000    0.03521
 20 Au   -0.00000   -0.00000    0.03521
 21 Au   -0.00000    0.00000    0.03521
 22 Au   -0.00000    0.00000    0.03521
 23 Au    0.00000    0.00000    0.03521
 24 Au   -0.00000    0.00000    0.03521
 25 Au    0.00000    0.00000    0.03521
 26 Au   -0.00000    0.00000    0.03521

System changes: positions 

Initializing position-dependent things.

Density initialized from wave functions
                                              
                                              
                                              
                                              
                                              
                  Au     Au     Au            
                                              
            Au     AAu    AAu    Au           
       Au     Au     AAu    Au                
                                              
        Au     Au     AAu    Au     Au        
                                              
                 Au     Au     Au             
                                              
           Au      Au     Au                  
                                              
                                              
                                              
                                              

Positions:
   0 Au     1.477500    0.853035    5.995853    ( 0.0000,  0.0000,  0.0000)
   1 Au     4.432499    0.853035    5.995854    ( 0.0000,  0.0000,  0.0000)
   2 Au     7.387498    0.853035    5.995853    ( 0.0000,  0.0000,  0.0000)
   3 Au     2.954999    3.412139    5.995854    ( 0.0000,  0.0000,  0.0000)
   4 Au     5.909999    3.412139    5.995854    ( 0.0000,  0.0000,  0.0000)
   5 Au     8.864998    3.412139    5.995854    ( 0.0000,  0.0000,  0.0000)
   6 Au     4.432499    5.971244    5.995853    ( 0.0000,  0.0000,  0.0000)
   7 Au     7.387498    5.971244    5.995854    ( 0.0000,  0.0000,  0.0000)
   8 Au    10.342497    5.971244    5.995854    ( 0.0000,  0.0000,  0.0000)
   9 Au    -0.000000    1.706070    8.412747    ( 0.0000,  0.0000,  0.0000)
  10 Au     2.954999    1.706070    8.412747    ( 0.0000,  0.0000,  0.0000)
  11 Au     5.909999    1.706070    8.412747    ( 0.0000,  0.0000,  0.0000)
  12 Au     1.477499    4.265174    8.412747    ( 0.0000,  0.0000,  0.0000)
  13 Au     4.432499    4.265174    8.412747    ( 0.0000,  0.0000,  0.0000)
  14 Au     7.387498    4.265174    8.412747    ( 0.0000,  0.0000,  0.0000)
  15 Au     2.954999    6.824278    8.412747    ( 0.0000,  0.0000,  0.0000)
  16 Au     5.909999    6.824278    8.412747    ( 0.0000,  0.0000,  0.0000)
  17 Au     8.864998    6.824278    8.412747    ( 0.0000,  0.0000,  0.0000)
  18 Au    -0.000000   -0.000000   10.829640    ( 0.0000,  0.0000,  0.0000)
  19 Au     2.954999   -0.000000   10.829640    ( 0.0000,  0.0000,  0.0000)
  20 Au     5.909998   -0.000000   10.829640    ( 0.0000,  0.0000,  0.0000)
  21 Au     1.477499    2.559105   10.829640    ( 0.0000,  0.0000,  0.0000)
  22 Au     4.432499    2.559104   10.829640    ( 0.0000,  0.0000,  0.0000)
  23 Au     7.387498    2.559105   10.829640    ( 0.0000,  0.0000,  0.0000)
  24 Au     2.954999    5.118209   10.829640    ( 0.0000,  0.0000,  0.0000)
  25 Au     5.909999    5.118209   10.829640    ( 0.0000,  0.0000,  0.0000)
  26 Au     8.864998    5.118209   10.829640    ( 0.0000,  0.0000,  0.0000)

Unit cell:
           periodic     x           y           z      points  spacing
  1. axis:    yes    8.864998    0.000000    0.000000    45     0.1706
  2. axis:    yes    4.432499    7.677313    0.000000    45     0.1706
  3. axis:    no     0.000000    0.000000   16.825494    84     0.2003

  Lengths:   8.864998   8.864998  16.825494
  Angles:   90.000000  90.000000  60.000000

Effective grid spacing dv^(1/3) = 0.1888

     iter     time        total  log10-change:
                         energy  eigst   dens
iter:   1 15:42:58   -78.837835  -3.69
iter:   2 15:43:01   -78.831986  -5.30  -2.88
iter:   3 15:43:04   -78.827073c -4.28  -3.04
iter:   4 15:43:08   -78.827091c -5.71  -3.83
iter:   5 15:43:11   -78.827086c -6.78  -3.82
iter:   6 15:43:14   -78.827243c -5.70  -3.88
iter:   7 15:43:18   -78.827269c -6.69  -4.21c
iter:   8 15:43:21   -78.827097c -6.10  -4.21c
iter:   9 15:43:24   -78.827091c -7.12  -4.55c
iter:  10 15:43:27   -78.827111c -7.66c -4.76c

Converged after 10 iterations.

Dipole moment: (-0.118810, -0.068595, 0.000000) |e|*Ang

Energy contributions relative to reference atoms: (reference = -13948153.319951)

Kinetic:       -310.169241
Potential:     +250.847330
External:        +0.000000
XC:             -22.362547
Entropy (-ST):   -0.274614
Local:           +2.994654
--------------------------
Free energy:    -78.964418
Extrapolated:   -78.827111

Showing only first 2 kpts
 Kpt  Band  Eigenvalues  Occupancy
  0   146     -0.38780    1.99999
  0   147     -0.38780    1.99999
  0   148      0.31249    1.98632
  0   149      0.31249    1.98632

  1   146     -0.56636    2.00000
  1   147     -0.37738    1.99999
  1   148     -0.37738    1.99999
  1   149     -0.19300    1.99991


Fermi level: 0.81033

No gap

Forces in eV/Ang:
  0 Au    0.00001    0.00000   -0.02892
  1 Au   -0.00000    0.00001   -0.02892
  2 Au   -0.00001    0.00000   -0.02892
  3 Au    0.00001   -0.00001   -0.02892
  4 Au   -0.00001   -0.00001   -0.02892
  5 Au   -0.00000   -0.00000   -0.02891
  6 Au   -0.00000   -0.00001   -0.02892
  7 Au   -0.00000    0.00000   -0.02891
  8 Au    0.00000    0.00000   -0.02891
  9 Au    0.00000    0.00000    0.00000
 10 Au    0.00000    0.00000    0.00000
 11 Au   -0.00000    0.00000    0.00000
 12 Au    0.00000   -0.00000   -0.00000
 13 Au    0.00000   -0.00000    0.00000
 14 Au   -0.00000   -0.00000   -0.00000
 15 Au   -0.00000   -0.00000    0.00000
 16 Au    0.00000   -0.00000    0.00000
 17 Au    0.00000    0.00000   -0.00000
 18 Au    0.00000    0.00000    0.02892
 19 Au   -0.00000    0.00002    0.02892
 20 Au    0.00000    0.00002    0.02892
 21 Au    0.00001   -0.00001    0.02892
 22 Au    0.00000    0.00000    0.02892
 23 Au   -0.00001   -0.00001    0.02892
 24 Au    0.00001   -0.00001    0.02892
 25 Au   -0.00001   -0.00001    0.02892
 26 Au    0.00000    0.00000    0.02891

System changes: positions 

Initializing position-dependent things.

Density initialized from wave functions
                                              
                                              
                                              
                                              
                                              
                  Au     Au     Au            
                                              
            Au     AAu    AAu    Au           
       Au     Au     AAu    Au                
                                              
        Au     Au     AAu    Au     Au        
                                              
                 Au     Au     Au             
                                              
           Au      Au     Au                  
                                              
                                              
                                              
                                              

Positions:
   0 Au     1.477500    0.853035    5.979491    ( 0.0000,  0.0000,  0.0000)
   1 Au     4.432499    0.853035    5.979492    ( 0.0000,  0.0000,  0.0000)
   2 Au     7.387498    0.853035    5.979491    ( 0.0000,  0.0000,  0.0000)
   3 Au     2.954999    3.412139    5.979492    ( 0.0000,  0.0000,  0.0000)
   4 Au     5.909998    3.412139    5.979492    ( 0.0000,  0.0000,  0.0000)
   5 Au     8.864998    3.412139    5.979492    ( 0.0000,  0.0000,  0.0000)
   6 Au     4.432499    5.971243    5.979491    ( 0.0000,  0.0000,  0.0000)
   7 Au     7.387498    5.971244    5.979492    ( 0.0000,  0.0000,  0.0000)
   8 Au    10.342497    5.971244    5.979492    ( 0.0000,  0.0000,  0.0000)
   9 Au    -0.000000    1.706072    8.412747    ( 0.0000,  0.0000,  0.0000)
  10 Au     2.954999    1.706069    8.412747    ( 0.0000,  0.0000,  0.0000)
  11 Au     5.909999    1.706069    8.412747    ( 0.0000,  0.0000,  0.0000)
  12 Au     1.477498    4.265175    8.412747    ( 0.0000,  0.0000,  0.0000)
  13 Au     4.432499    4.265175    8.412747    ( 0.0000,  0.0000,  0.0000)
  14 Au     7.387500    4.265175    8.412747    ( 0.0000,  0.0000,  0.0000)
  15 Au     2.954998    6.824277    8.412747    ( 0.0000,  0.0000,  0.0000)
  16 Au     5.910000    6.824277    8.412747    ( 0.0000,  0.0000,  0.0000)
  17 Au     8.864998    6.824276    8.412747    ( 0.0000,  0.0000,  0.0000)
  18 Au    -0.000000   -0.000000   10.846002    ( 0.0000,  0.0000,  0.0000)
  19 Au     2.955000   -0.000000   10.846001    ( 0.0000,  0.0000,  0.0000)
  20 Au     5.909998   -0.000000   10.846001    ( 0.0000,  0.0000,  0.0000)
  21 Au     1.477500    2.559105   10.846001    ( 0.0000,  0.0000,  0.0000)
  22 Au     4.432499    2.559104   10.846003    ( 0.0000,  0.0000,  0.0000)
  23 Au     7.387498    2.559105   10.846001    ( 0.0000,  0.0000,  0.0000)
  24 Au     2.954999    5.118208   10.846001    ( 0.0000,  0.0000,  0.0000)
  25 Au     5.909999    5.118208   10.846001    ( 0.0000,  0.0000,  0.0000)
  26 Au     8.864998    5.118209   10.846001    ( 0.0000,  0.0000,  0.0000)

Unit cell:
           periodic     x           y           z      points  spacing
  1. axis:    yes    8.864998    0.000000    0.000000    45     0.1706
  2. axis:    yes    4.432499    7.677313    0.000000    45     0.1706
  3. axis:    no     0.000000    0.000000   16.825494    84     0.2003

  Lengths:   8.864998   8.864998  16.825494
  Angles:   90.000000  90.000000  60.000000

Effective grid spacing dv^(1/3) = 0.1888

     iter     time        total  log10-change:
                         energy  eigst   dens
iter:   1 15:43:32   -79.028710  -2.38
iter:   2 15:43:35   -78.917953  -4.00  -2.23
iter:   3 15:43:38   -78.831349  -2.96  -2.38
iter:   4 15:43:42   -78.831191c -4.39  -3.16
iter:   5 15:43:45   -78.830947c -5.35  -3.14
iter:   6 15:43:48   -78.831262c -4.27  -3.17
iter:   7 15:43:51   -78.832023c -5.03  -3.47
iter:   8 15:43:55   -78.829779c -4.60  -3.44
iter:   9 15:43:58   -78.829826c -6.01  -3.85
iter:  10 15:44:01   -78.829993c -5.77  -4.01c
iter:  11 15:44:04   -78.829795c -5.47  -4.02c
iter:  12 15:44:08   -78.829803c -6.35  -4.12c
iter:  13 15:44:11   -78.829809c -7.39  -4.65c
iter:  14 15:44:14   -78.829786c -7.05  -4.68c
iter:  15 15:44:17   -78.829820c -6.75  -4.62c
iter:  16 15:44:21   -78.829804c -7.90c -4.69c

Converged after 16 iterations.

Dipole moment: (-0.112243, -0.064804, -0.000000) |e|*Ang

Energy contributions relative to reference atoms: (reference = -13948153.319951)

Kinetic:       -317.196305
Potential:     +256.764622
External:        +0.000000
XC:             -21.237144
Entropy (-ST):   -0.271546
Local:           +2.974795
--------------------------
Free energy:    -78.965577
Extrapolated:   -78.829804

Showing only first 2 kpts
 Kpt  Band  Eigenvalues  Occupancy
  0   146     -0.39640    1.99999
  0   147     -0.39640    1.99999
  0   148      0.30772    1.98532
  0   149      0.30773    1.98532

  1   146     -0.57886    2.00000
  1   147     -0.38693    1.99999
  1   148     -0.38693    1.99999
  1   149     -0.20169    1.99991


Fermi level: 0.79841

No gap

Forces in eV/Ang:
  0 Au    0.00001    0.00001    0.01864
  1 Au    0.00000    0.00007    0.01866
  2 Au   -0.00001    0.00001    0.01864
  3 Au    0.00006   -0.00003    0.01866
  4 Au   -0.00006   -0.00003    0.01866
  5 Au    0.00000   -0.00006    0.01862
  6 Au   -0.00000   -0.00002    0.01864
  7 Au   -0.00005    0.00003    0.01862
  8 Au    0.00005    0.00003    0.01862
  9 Au    0.00000   -0.00003   -0.00001
 10 Au    0.00009    0.00005    0.00001
 11 Au   -0.00009    0.00005    0.00001
 12 Au    0.00010   -0.00006    0.00001
 13 Au    0.00000   -0.00010    0.00001
 14 Au   -0.00010   -0.00006    0.00001
 15 Au    0.00002    0.00001   -0.00001
 16 Au   -0.00002    0.00001   -0.00001
 17 Au   -0.00000    0.00012    0.00001
 18 Au    0.00000    0.00000   -0.01863
 19 Au    0.00003    0.00007   -0.01864
 20 Au   -0.00003    0.00007   -0.01864
 21 Au    0.00008   -0.00001   -0.01864
 22 Au   -0.00000    0.00000   -0.01868
 23 Au   -0.00008   -0.00001   -0.01864
 24 Au    0.00005   -0.00006   -0.01864
 25 Au   -0.00005   -0.00006   -0.01864
 26 Au   -0.00000    0.00000   -0.01862

System changes: positions 

Initializing position-dependent things.

Density initialized from wave functions
                                              
                                              
                                              
                                              
                                              
                  Au     Au     Au            
                                              
            Au     AAu    AAu    Au           
       Au     Au     AAu    Au                
                                              
        Au     Au     AAu    Au     Au        
                                              
                 Au     Au     Au             
                                              
           Au      Au     Au                  
                                              
                                              
                                              
                                              

Positions:
   0 Au     1.477500    0.853035    5.985905    ( 0.0000,  0.0000,  0.0000)
   1 Au     4.432499    0.853036    5.985905    ( 0.0000,  0.0000,  0.0000)
   2 Au     7.387498    0.853035    5.985905    ( 0.0000,  0.0000,  0.0000)
   3 Au     2.955000    3.412139    5.985905    ( 0.0000,  0.0000,  0.0000)
   4 Au     5.909998    3.412139    5.985905    ( 0.0000,  0.0000,  0.0000)
   5 Au     8.864998    3.412139    5.985905    ( 0.0000,  0.0000,  0.0000)
   6 Au     4.432499    5.971243    5.985905    ( 0.0000,  0.0000,  0.0000)
   7 Au     7.387498    5.971244    5.985905    ( 0.0000,  0.0000,  0.0000)
   8 Au    10.342498    5.971244    5.985905    ( 0.0000,  0.0000,  0.0000)
   9 Au    -0.000000    1.706071    8.412747    ( 0.0000,  0.0000,  0.0000)
  10 Au     2.955000    1.706070    8.412747    ( 0.0000,  0.0000,  0.0000)
  11 Au     5.909998    1.706070    8.412747    ( 0.0000,  0.0000,  0.0000)
  12 Au     1.477499    4.265174    8.412747    ( 0.0000,  0.0000,  0.0000)
  13 Au     4.432499    4.265174    8.412747    ( 0.0000,  0.0000,  0.0000)
  14 Au     7.387498    4.265174    8.412747    ( 0.0000,  0.0000,  0.0000)
  15 Au     2.954998    6.824278    8.412747    ( 0.0000,  0.0000,  0.0000)
  16 Au     5.909999    6.824278    8.412747    ( 0.0000,  0.0000,  0.0000)
  17 Au     8.864998    6.824278    8.412747    ( 0.0000,  0.0000,  0.0000)
  18 Au    -0.000000   -0.000000   10.839589    ( 0.0000,  0.0000,  0.0000)
  19 Au     2.955000    0.000001   10.839588    ( 0.0000,  0.0000,  0.0000)
  20 Au     5.909998    0.000001   10.839588    ( 0.0000,  0.0000,  0.0000)
  21 Au     1.477500    2.559105   10.839588    ( 0.0000,  0.0000,  0.0000)
  22 Au     4.432499    2.559104   10.839589    ( 0.0000,  0.0000,  0.0000)
  23 Au     7.387497    2.559105   10.839588    ( 0.0000,  0.0000,  0.0000)
  24 Au     2.955000    5.118208   10.839588    ( 0.0000,  0.0000,  0.0000)
  25 Au     5.909998    5.118208   10.839588    ( 0.0000,  0.0000,  0.0000)
  26 Au     8.864998    5.118209   10.839588    ( 0.0000,  0.0000,  0.0000)

Unit cell:
           periodic     x           y           z      points  spacing
  1. axis:    yes    8.864998    0.000000    0.000000    45     0.1706
  2. axis:    yes    4.432499    7.677313    0.000000    45     0.1706
  3. axis:    no     0.000000    0.000000   16.825494    84     0.2003

  Lengths:   8.864998   8.864998  16.825494
  Angles:   90.000000  90.000000  60.000000

Effective grid spacing dv^(1/3) = 0.1888

     iter     time        total  log10-change:
                         energy  eigst   dens
iter:   1 15:44:25   -78.858578  -3.19
iter:   2 15:44:28   -78.842246  -4.81  -2.64
iter:   3 15:44:31   -78.830812c -3.78  -2.79
iter:   4 15:44:35   -78.830702c -5.25  -3.57
iter:   5 15:44:38   -78.830451c -6.12  -3.56
iter:   6 15:44:41   -78.830318c -5.46  -3.68
iter:   7 15:44:44   -78.830330c -6.13  -4.04c
iter:   8 15:44:48   -78.830327c -6.48  -4.14c
iter:   9 15:44:51   -78.830378c -6.61  -4.26c
iter:  10 15:44:54   -78.830345c -7.55c -4.51c

Converged after 10 iterations.

Dipole moment: (-0.115153, -0.066484, -0.000001) |e|*Ang

Energy contributions relative to reference atoms: (reference = -13948153.319951)

Kinetic:       -314.198853
Potential:     +254.215676
External:        +0.000000
XC:             -21.694415
Entropy (-ST):   -0.272844
Local:           +2.983670
--------------------------
Free energy:    -78.966766
Extrapolated:   -78.830345

Showing only first 2 kpts
 Kpt  Band  Eigenvalues  Occupancy
  0   146     -0.39288    1.99999
  0   147     -0.39288    1.99999
  0   148      0.30973    1.98575
  0   149      0.30973    1.98575

  1   146     -0.57398    2.00000
  1   147     -0.38302    1.99999
  1   148     -0.38302    1.99999
  1   149     -0.19810    1.99991


Fermi level: 0.80343

No gap

Forces in eV/Ang:
  0 Au    0.00000    0.00000    0.00535
  1 Au    0.00000    0.00002    0.00535
  2 Au   -0.00000    0.00000    0.00535
  3 Au    0.00002   -0.00001    0.00535
  4 Au   -0.00002   -0.00001    0.00535
  5 Au    0.00000   -0.00001    0.00533
  6 Au   -0.00000   -0.00000    0.00535
  7 Au   -0.00001    0.00001    0.00533
  8 Au    0.00001    0.00001    0.00533
  9 Au    0.00000   -0.00001   -0.00000
 10 Au    0.00003    0.00002    0.00000
 11 Au   -0.00003    0.00002    0.00000
 12 Au    0.00004   -0.00002    0.00000
 13 Au    0.00000   -0.00003    0.00000
 14 Au   -0.00004   -0.00002    0.00000
 15 Au    0.00001    0.00001   -0.00000
 16 Au   -0.00001    0.00001   -0.00000
 17 Au    0.00000    0.00004    0.00000
 18 Au    0.00000    0.00000   -0.00535
 19 Au    0.00001    0.00002   -0.00534
 20 Au   -0.00001    0.00002   -0.00534
 21 Au    0.00002   -0.00000   -0.00534
 22 Au   -0.00000    0.00000   -0.00536
 23 Au   -0.00002   -0.00000   -0.00534
 24 Au    0.00001   -0.00001   -0.00534
 25 Au   -0.00001   -0.00001   -0.00534
 26 Au    0.00000    0.00000   -0.00533

Writing to Au.gpw (mode='')


  ___ ___ ___ _ _ _  
 |   |   |_  | | | | 
 | | | | | . | | | | 
 |__ |  _|___|_____|  22.8.0
 |___|_|             

User:   jesfra@vera36-2
Date:   Fri Feb 24 15:44:55 2023
Arch:   x86_64
Pid:    1338438
CWD:    /cephyr/users/jesfra/Vera/A4
Python: 3.10.4
gpaw:   /apps/Arch/software/GPAW/22.8.0-foss-2022a/lib/python3.10/site-packages/gpaw
_gpaw:  /apps/Arch/software/GPAW/22.8.0-foss-2022a/lib/python3.10/site-packages/
        _gpaw.cpython-310-x86_64-linux-gnu.so
ase:    /apps/Arch/software/ASE/3.22.1-foss-2022a/lib/python3.10/site-packages/ase (version 3.22.1)
numpy:  /apps/Arch/software/SciPy-bundle/2022.05-foss-2022a/lib/python3.10/site-packages/numpy (version 1.22.3)
scipy:  /apps/Arch/software/SciPy-bundle/2022.05-foss-2022a/lib/python3.10/site-packages/scipy (version 1.8.1)
libxc:  5.2.3
units:  Angstrom and eV
cores: 32
OpenMP: False
OMP_NUM_THREADS: 1

Input parameters:
  kpts: [4 4 1]
  mode: {ecut: 450.00000000000006,
         name: pw}
  xc: PBE

Timing:                                      incl.     excl.
-------------------------------------------------------------------
Density initialized from wave functions:     1.192     0.929   0.4% |
 Symmetrize density:                         0.263     0.263   0.1% |
Forces:                                      3.226     3.226   1.5% ||
Hamiltonian:                                 0.921     0.022   0.0% |
 Atomic:                                     0.001     0.001   0.0% |
  XC Correction:                             0.000     0.000   0.0% |
 Calculate atomic Hamiltonians:              0.240     0.240   0.1% |
 Communicate:                                0.382     0.382   0.2% |
 Initialize Hamiltonian:                     0.000     0.000   0.0% |
 Poisson:                                    0.002     0.002   0.0% |
 XC 3D grid:                                 0.273     0.273   0.1% |
LCAO initialization:                         7.004     0.062   0.0% |
 LCAO eigensolver:                           0.431     0.001   0.0% |
  Calculate projections:                     0.000     0.000   0.0% |
  DenseAtomicCorrection:                     0.000     0.000   0.0% |
  Distribute overlap matrix:                 0.308     0.308   0.1% |
  Orbital Layouts:                           0.100     0.100   0.0% |
  Potential matrix:                          0.015     0.015   0.0% |
  Sum over cells:                            0.006     0.006   0.0% |
 LCAO to grid:                               6.291     6.291   2.8% ||
 Set positions (LCAO WFS):                   0.220     0.168   0.1% |
  Basic WFS set positions:                   0.004     0.004   0.0% |
  Basis functions set positions:             0.000     0.000   0.0% |
  P tci:                                     0.001     0.001   0.0% |
  ST tci:                                    0.020     0.020   0.0% |
  mktci:                                     0.026     0.026   0.0% |
PWDescriptor:                                0.344     0.344   0.2% |
Redistribute:                                0.003     0.003   0.0% |
SCF-cycle:                                 205.267     1.489   0.7% |
 Davidson:                                 174.047    29.897  13.5% |----|
  Apply H:                                  17.745    17.315   7.8% |--|
   HMM T:                                    0.430     0.430   0.2% |
  Subspace diag:                            28.844     0.027   0.0% |
   calc_h_matrix:                           21.746     2.442   1.1% |
    Apply H:                                19.304    18.873   8.5% |--|
     HMM T:                                  0.431     0.431   0.2% |
   diagonalize:                              3.214     3.214   1.5% ||
   rotate_psi:                               3.857     3.857   1.7% ||
  calc. matrices:                           52.589    17.261   7.8% |--|
   Apply H:                                 35.328    34.468  15.6% |-----|
    HMM T:                                   0.860     0.860   0.4% |
  diagonalize:                              36.890    36.890  16.7% |------|
  rotate_psi:                                8.082     8.082   3.7% ||
 Density:                                   17.984     0.002   0.0% |
  Atomic density matrices:                   0.236     0.236   0.1% |
  Mix:                                       4.151     4.151   1.9% ||
  Multipole moments:                         0.010     0.010   0.0% |
  Pseudo density:                           13.585     9.798   4.4% |-|
   Symmetrize density:                       3.787     3.787   1.7% ||
 Hamiltonian:                               10.856     0.242   0.1% |
  Atomic:                                    0.013     0.013   0.0% |
   XC Correction:                            0.000     0.000   0.0% |
  Calculate atomic Hamiltonians:             2.726     2.726   1.2% |
  Communicate:                               4.551     4.551   2.1% ||
  Poisson:                                   0.038     0.038   0.0% |
  XC 3D grid:                                3.287     3.287   1.5% ||
 Orthonormalize:                             0.890     0.003   0.0% |
  calc_s_matrix:                             0.092     0.092   0.0% |
  inverse-cholesky:                          0.117     0.117   0.1% |
  projections:                               0.518     0.518   0.2% |
  rotate_psi_s:                              0.160     0.160   0.1% |
Set symmetry:                                0.003     0.003   0.0% |
Other:                                       3.026     3.026   1.4% ||
-------------------------------------------------------------------
Total:                                               220.986 100.0%

Memory usage: 406.20 MiB
Date: Fri Feb 24 15:44:55 2023
System changes: positions, numbers, cell, pbc, initial_charges, initial_magmoms 

Initialize ...

species:
  Pt:
    name: Platinum
    id: 5ed695806aff0c961dba1a84acd7f4b2
    Z: 78.0
    valence: 16
    core: 62
    charge: 0.0
    file: /apps/Common/software/GPAW-setups/0.9.20000/Pt.PBE.gz
    compensation charges: {type: gauss,
                           rc: 0.41,
                           lmax: 2}
    cutoffs: {filter: 2.26,
              core: 2.26}
    valence states:
      #              energy  rcut
      - 6s(1.00)    -5.628   1.307
      - 5p(6.00)   -56.051   1.371
      - 6p(0.00)    -0.845   1.371
      - 5d(9.00)    -6.153   1.307
      -  s          21.583   1.307
      -  d          21.058   1.307
  
    # Using partial waves for Pt as LCAO basis

Reference energy: -13510134.794721  # eV

Spin-paired calculation

Convergence criteria:
 Maximum [total energy] change in last 3 cyles: 0.0005 eV / electron
 Maximum integral of absolute [dens]ity change: 0.0001 electrons / valence electron
 Maximum integral of absolute [eigenst]ate change: 4e-08 eV^2 / valence electron
 Maximum number of scf [iter]ations: 333
 (Square brackets indicate name in SCF output, whereas a 'c' in
 the SCF output indicates the quantity has converged.)

Symmetries present (total): 6

  ( 1  0  0)  ( 1 -1  0)  ( 0  1  0)  ( 0 -1  0)  (-1  1  0)  (-1  0  0)
  ( 0  1  0)  ( 0 -1  0)  ( 1  0  0)  ( 1 -1  0)  (-1  0  0)  (-1  1  0)
  ( 0  0  1)  ( 0  0  1)  ( 0  0  1)  ( 0  0  1)  ( 0  0  1)  ( 0  0  1)
Note: your k-points are not as symmetric as your crystal!

16 k-points: 4 x 4 x 1 Monkhorst-Pack grid
6 k-points in the irreducible part of the Brillouin zone
       k-points in crystal coordinates                weights
   0:     0.12500000   -0.12500000    0.00000000          2/16
   1:     0.12500000    0.12500000    0.00000000          2/16
   2:     0.37500000   -0.37500000    0.00000000          2/16
   3:     0.37500000   -0.12500000    0.00000000          4/16
   4:     0.37500000    0.12500000    0.00000000          4/16
   5:     0.37500000    0.37500000    0.00000000          2/16

Wave functions: Plane wave expansion
  Cutoff energy: 450.000 eV
  Number of coefficients (min, max): 22050, 22099
  Pulay-stress correction: 0.000000 eV/Ang^3 (de/decut=0.000000)
  Using FFTW library
  ScaLapack parameters: grid=1x1, blocksize=None
  Wavefunction extrapolation:
    Improved wavefunction reuse through dual PAW basis 

Occupation numbers: Fermi-Dirac:
  width: 0.1000  # eV
 

Eigensolver
   Davidson(niter=2) 

Densities:
  Coarse grid: 42*42*84 grid
  Fine grid: 84*84*168 grid
  Total Charge: 0.000000 

Density mixing:
  Method: separate
  Backend: pulay
  Linear mixing parameter: 0.05
  old densities: 5
  Damping of long wavelength oscillations: 50 

Hamiltonian:
  XC and Coulomb potentials evaluated on a 84*84*168 grid
  Using the PBE Exchange-Correlation functional
  External potential:
    NoExternalPotential
 

XC parameters: PBE with 2 nearest neighbor stencil

Memory estimate:
  Process memory now: 406.20 MiB
  Calculator: 380.44 MiB
    Density: 4.00 MiB
      Arrays: 1.84 MiB
      Localized functions: 1.46 MiB
      Mixer: 0.71 MiB
    Hamiltonian: 1.23 MiB
      Arrays: 1.20 MiB
      XC: 0.00 MiB
      Poisson: 0.00 MiB
      vbar: 0.03 MiB
    Wavefunctions: 375.21 MiB
      Arrays psit_nG: 267.07 MiB
      Eigensolver: 101.35 MiB
      Projections: 0.37 MiB
      Projectors: 0.47 MiB
      PW-descriptor: 5.95 MiB

Total number of cores used: 32
Parallelization over k-points: 2
Domain decomposition: 2 x 2 x 4

Number of atoms: 27
Number of atomic orbitals: 324
Number of bands in calculation: 264
Number of valence electrons: 432
Bands to converge: occupied

... initialized

Initializing position-dependent things.

Density initialized from atomic densities
Creating initial wave functions:
  264 bands from LCAO basis set

                                            
                                            
                                            
                                            
                                            
                 Pt     Pt     Pt           
            Pt     Pt     Pt                
       Pt     Pt  Pt Pt  Pt    Pt           
             Pt     Pt     Pt               
        Pt     Pt     Pt                    
                     Pt     Pt    Pt        
                Pt     Pt     Pt            
                                            
           Pt     Pt     Pt                 
                                            
                                            
                                            
                                            

Positions:
   0 Pt     1.403253    0.810169    6.000000    ( 0.0000,  0.0000,  0.0000)
   1 Pt     4.209760    0.810169    6.000000    ( 0.0000,  0.0000,  0.0000)
   2 Pt     7.016267    0.810169    6.000000    ( 0.0000,  0.0000,  0.0000)
   3 Pt     2.806507    3.240675    6.000000    ( 0.0000,  0.0000,  0.0000)
   4 Pt     5.613014    3.240675    6.000000    ( 0.0000,  0.0000,  0.0000)
   5 Pt     8.419520    3.240675    6.000000    ( 0.0000,  0.0000,  0.0000)
   6 Pt     4.209760    5.671181    6.000000    ( 0.0000,  0.0000,  0.0000)
   7 Pt     7.016267    5.671181    6.000000    ( 0.0000,  0.0000,  0.0000)
   8 Pt     9.822774    5.671181    6.000000    ( 0.0000,  0.0000,  0.0000)
   9 Pt    -0.000000    1.620337    8.291503    ( 0.0000,  0.0000,  0.0000)
  10 Pt     2.806507    1.620337    8.291503    ( 0.0000,  0.0000,  0.0000)
  11 Pt     5.613014    1.620337    8.291503    ( 0.0000,  0.0000,  0.0000)
  12 Pt     1.403253    4.050844    8.291503    ( 0.0000,  0.0000,  0.0000)
  13 Pt     4.209760    4.050844    8.291503    ( 0.0000,  0.0000,  0.0000)
  14 Pt     7.016267    4.050844    8.291503    ( 0.0000,  0.0000,  0.0000)
  15 Pt     2.806507    6.481350    8.291503    ( 0.0000,  0.0000,  0.0000)
  16 Pt     5.613014    6.481350    8.291503    ( 0.0000,  0.0000,  0.0000)
  17 Pt     8.419520    6.481350    8.291503    ( 0.0000,  0.0000,  0.0000)
  18 Pt     0.000000    0.000000   10.583006    ( 0.0000,  0.0000,  0.0000)
  19 Pt     2.806507    0.000000   10.583006    ( 0.0000,  0.0000,  0.0000)
  20 Pt     5.613014    0.000000   10.583006    ( 0.0000,  0.0000,  0.0000)
  21 Pt     1.403253    2.430506   10.583006    ( 0.0000,  0.0000,  0.0000)
  22 Pt     4.209760    2.430506   10.583006    ( 0.0000,  0.0000,  0.0000)
  23 Pt     7.016267    2.430506   10.583006    ( 0.0000,  0.0000,  0.0000)
  24 Pt     2.806507    4.861012   10.583006    ( 0.0000,  0.0000,  0.0000)
  25 Pt     5.613014    4.861012   10.583006    ( 0.0000,  0.0000,  0.0000)
  26 Pt     8.419520    4.861012   10.583006    ( 0.0000,  0.0000,  0.0000)

Unit cell:
           periodic     x           y           z      points  spacing
  1. axis:    yes    8.419520    0.000000    0.000000    42     0.1736
  2. axis:    yes    4.209760    7.291519    0.000000    42     0.1736
  3. axis:    no     0.000000    0.000000   16.583006    84     0.1974

  Lengths:   8.419520   8.419520  16.583006
  Angles:   90.000000  90.000000  60.000000

Effective grid spacing dv^(1/3) = 0.1901

     iter     time        total  log10-change:
                         energy  eigst   dens
iter:   1 15:45:15  -172.676304
iter:   2 15:45:20  -170.438570  -1.23  -1.42
iter:   3 15:45:25  -166.048440  -1.78  -1.46
iter:   4 15:45:30  -162.144798  -1.36  -1.59
iter:   5 15:45:35  -162.490580  -2.18  -2.00
iter:   6 15:45:40  -162.043720  -2.72  -2.08
iter:   7 15:45:45  -161.870984  -3.11  -2.23
iter:   8 15:45:50  -161.862264c -3.80  -2.31
iter:   9 15:45:55  -161.830876c -2.87  -2.34
iter:  10 15:46:00  -161.840774c -3.32  -2.91
iter:  11 15:46:05  -161.829681c -4.16  -2.95
iter:  12 15:46:10  -161.831433c -4.73  -3.15
iter:  13 15:46:15  -161.831762c -4.94  -3.08
iter:  14 15:46:20  -161.832936c -4.73  -3.09
iter:  15 15:46:25  -161.831293c -4.76  -3.05
iter:  16 15:46:30  -161.828869c -5.13  -3.14
iter:  17 15:46:35  -161.829372c -6.40  -3.22
iter:  18 15:46:40  -161.833239c -4.73  -3.26
iter:  19 15:46:45  -161.833197c -5.60  -3.83
iter:  20 15:46:50  -161.833069c -6.00  -3.89
iter:  21 15:46:55  -161.832870c -5.79  -3.94
iter:  22 15:47:00  -161.832712c -6.24  -3.94
iter:  23 15:47:05  -161.832512c -6.47  -4.06c
iter:  24 15:47:10  -161.832229c -6.91  -4.27c
iter:  25 15:47:15  -161.832058c -7.26  -4.33c
iter:  26 15:47:20  -161.832046c -7.55c -4.48c

Converged after 26 iterations.

Dipole moment: (-0.177478, -0.102467, 0.000228) |e|*Ang

Energy contributions relative to reference atoms: (reference = -13510134.794721)

Kinetic:       -311.548763
Potential:     +239.837653
External:        +0.000000
XC:             -74.561168
Entropy (-ST):   -1.819290
Local:          -14.650122
--------------------------
Free energy:   -162.741691
Extrapolated:  -161.832046

Showing only first 2 kpts
 Kpt  Band  Eigenvalues  Occupancy
  0   214      1.27176    1.31535
  0   215      1.27176    1.31534
  0   216      1.28965    1.23266
  0   217      1.33058    1.03234

  1   214      1.11166    1.80997
  1   215      1.11275    1.80810
  1   216      1.16903    1.68585
  1   217      1.16904    1.68585


Fermi level: 1.33705

No gap

Forces in eV/Ang:
  0 Pt    0.00001    0.00001   -0.07840
  1 Pt    0.00000   -0.00000   -0.07840
  2 Pt   -0.00001    0.00001   -0.07840
  3 Pt   -0.00000    0.00000   -0.07840
  4 Pt    0.00000    0.00000   -0.07840
  5 Pt    0.00000   -0.00002   -0.07840
  6 Pt    0.00000   -0.00001   -0.07840
  7 Pt   -0.00001    0.00001   -0.07840
  8 Pt    0.00001    0.00001   -0.07840
  9 Pt   -0.00000    0.00001   -0.00076
 10 Pt    0.00000    0.00000   -0.00075
 11 Pt   -0.00000    0.00000   -0.00075
 12 Pt    0.00001   -0.00001   -0.00075
 13 Pt    0.00000   -0.00000   -0.00075
 14 Pt   -0.00001   -0.00001   -0.00075
 15 Pt   -0.00001   -0.00000   -0.00076
 16 Pt    0.00001   -0.00000   -0.00076
 17 Pt   -0.00000    0.00001   -0.00075
 18 Pt    0.00000   -0.00000    0.07761
 19 Pt    0.00000    0.00001    0.07760
 20 Pt   -0.00000    0.00001    0.07760
 21 Pt    0.00001    0.00000    0.07760
 22 Pt   -0.00000    0.00000    0.07761
 23 Pt   -0.00001    0.00000    0.07760
 24 Pt    0.00000   -0.00001    0.07760
 25 Pt   -0.00000   -0.00001    0.07760
 26 Pt   -0.00000    0.00000    0.07760

System changes: positions 

Initializing position-dependent things.

Density initialized from wave functions
                                            
                                            
                                            
                                            
                                            
                 Pt     Pt     Pt           
            Pt     Pt     Pt                
       Pt     Pt  Pt Pt  Pt    Pt           
             Pt     Pt     Pt               
        Pt     Pt     Pt                    
                     Pt     Pt    Pt        
                Pt     Pt     Pt            
                                            
           Pt     Pt     Pt                 
                                            
                                            
                                            
                                            

Positions:
   0 Pt     1.403254    0.810169    5.998880    ( 0.0000,  0.0000,  0.0000)
   1 Pt     4.209760    0.810169    5.998880    ( 0.0000,  0.0000,  0.0000)
   2 Pt     7.016267    0.810169    5.998880    ( 0.0000,  0.0000,  0.0000)
   3 Pt     2.806507    3.240675    5.998880    ( 0.0000,  0.0000,  0.0000)
   4 Pt     5.613014    3.240675    5.998880    ( 0.0000,  0.0000,  0.0000)
   5 Pt     8.419520    3.240675    5.998880    ( 0.0000,  0.0000,  0.0000)
   6 Pt     4.209760    5.671181    5.998880    ( 0.0000,  0.0000,  0.0000)
   7 Pt     7.016267    5.671181    5.998880    ( 0.0000,  0.0000,  0.0000)
   8 Pt     9.822774    5.671181    5.998880    ( 0.0000,  0.0000,  0.0000)
   9 Pt    -0.000000    1.620338    8.291492    ( 0.0000,  0.0000,  0.0000)
  10 Pt     2.806507    1.620337    8.291492    ( 0.0000,  0.0000,  0.0000)
  11 Pt     5.613014    1.620337    8.291492    ( 0.0000,  0.0000,  0.0000)
  12 Pt     1.403254    4.050844    8.291492    ( 0.0000,  0.0000,  0.0000)
  13 Pt     4.209760    4.050844    8.291492    ( 0.0000,  0.0000,  0.0000)
  14 Pt     7.016267    4.050844    8.291492    ( 0.0000,  0.0000,  0.0000)
  15 Pt     2.806507    6.481350    8.291492    ( 0.0000,  0.0000,  0.0000)
  16 Pt     5.613014    6.481350    8.291492    ( 0.0000,  0.0000,  0.0000)
  17 Pt     8.419520    6.481350    8.291492    ( 0.0000,  0.0000,  0.0000)
  18 Pt     0.000000   -0.000000   10.584115    ( 0.0000,  0.0000,  0.0000)
  19 Pt     2.806507    0.000000   10.584115    ( 0.0000,  0.0000,  0.0000)
  20 Pt     5.613014    0.000000   10.584115    ( 0.0000,  0.0000,  0.0000)
  21 Pt     1.403254    2.430506   10.584115    ( 0.0000,  0.0000,  0.0000)
  22 Pt     4.209760    2.430506   10.584115    ( 0.0000,  0.0000,  0.0000)
  23 Pt     7.016267    2.430506   10.584115    ( 0.0000,  0.0000,  0.0000)
  24 Pt     2.806507    4.861012   10.584115    ( 0.0000,  0.0000,  0.0000)
  25 Pt     5.613014    4.861012   10.584115    ( 0.0000,  0.0000,  0.0000)
  26 Pt     8.419520    4.861012   10.584115    ( 0.0000,  0.0000,  0.0000)

Unit cell:
           periodic     x           y           z      points  spacing
  1. axis:    yes    8.419520    0.000000    0.000000    42     0.1736
  2. axis:    yes    4.209760    7.291519    0.000000    42     0.1736
  3. axis:    no     0.000000    0.000000   16.583006    84     0.1974

  Lengths:   8.419520   8.419520  16.583006
  Angles:   90.000000  90.000000  60.000000

Effective grid spacing dv^(1/3) = 0.1901

     iter     time        total  log10-change:
                         energy  eigst   dens
iter:   1 15:47:26  -161.833702  -4.57
iter:   2 15:47:31  -161.837255  -4.77  -3.25
iter:   3 15:47:36  -161.834180c -5.38  -3.31
iter:   4 15:47:41  -161.833922c -6.53  -3.70
iter:   5 15:47:46  -161.833846c -6.51  -4.10c
iter:   6 15:47:51  -161.833957c -6.79  -4.30c
iter:   7 15:47:56  -161.833719c -7.64c -4.46c

Converged after 7 iterations.

Dipole moment: (-0.176851, -0.102105, -0.000132) |e|*Ang

Energy contributions relative to reference atoms: (reference = -13510134.794721)

Kinetic:       -315.251600
Potential:     +243.256659
External:        +0.000000
XC:             -74.306551
Entropy (-ST):   -1.818783
Local:          -14.622834
--------------------------
Free energy:   -162.743110
Extrapolated:  -161.833719

Showing only first 2 kpts
 Kpt  Band  Eigenvalues  Occupancy
  0   214      1.27085    1.31407
  0   215      1.27085    1.31406
  0   216      1.28832    1.23331
  0   217      1.32863    1.03611

  1   214      1.11025    1.81035
  1   215      1.11255    1.80636
  1   216      1.16843    1.68430
  1   217      1.16843    1.68429


Fermi level: 1.33586

No gap

Forces in eV/Ang:
  0 Pt   -0.00001   -0.00000   -0.06238
  1 Pt   -0.00000   -0.00001   -0.06237
  2 Pt    0.00001   -0.00000   -0.06238
  3 Pt   -0.00001    0.00001   -0.06237
  4 Pt    0.00001    0.00001   -0.06237
  5 Pt    0.00000    0.00000   -0.06239
  6 Pt   -0.00000    0.00001   -0.06238
  7 Pt    0.00000   -0.00000   -0.06239
  8 Pt   -0.00000   -0.00000   -0.06239
  9 Pt    0.00000    0.00000    0.00068
 10 Pt    0.00000    0.00000    0.00068
 11 Pt   -0.00000    0.00000    0.00068
 12 Pt    0.00001   -0.00001    0.00068
 13 Pt    0.00000   -0.00000    0.00068
 14 Pt   -0.00001   -0.00001    0.00068
 15 Pt   -0.00000   -0.00000    0.00068
 16 Pt    0.00000   -0.00000    0.00068
 17 Pt    0.00000    0.00001    0.00068
 18 Pt    0.00000   -0.00000    0.06260
 19 Pt   -0.00001   -0.00001    0.06261
 20 Pt    0.00001   -0.00001    0.06261
 21 Pt   -0.00001    0.00000    0.06261
 22 Pt   -0.00000   -0.00000    0.06256
 23 Pt    0.00001    0.00000    0.06261
 24 Pt   -0.00001    0.00001    0.06261
 25 Pt    0.00001    0.00001    0.06261
 26 Pt   -0.00000   -0.00000    0.06260

System changes: positions 

Initializing position-dependent things.

Density initialized from wave functions
                                            
                                            
                                            
                                            
                                            
                 Pt     Pt     Pt           
            Pt     Pt     Pt                
       Pt     Pt  Pt Pt  Pt    Pt           
             Pt     Pt     Pt               
        Pt     Pt     Pt                    
                     Pt     Pt    Pt        
                Pt     Pt     Pt            
                                            
           Pt     Pt     Pt                 
                                            
                                            
                                            
                                            

Positions:
   0 Pt     1.403253    0.810169    5.994396    ( 0.0000,  0.0000,  0.0000)
   1 Pt     4.209760    0.810168    5.994397    ( 0.0000,  0.0000,  0.0000)
   2 Pt     7.016267    0.810169    5.994396    ( 0.0000,  0.0000,  0.0000)
   3 Pt     2.806506    3.240675    5.994397    ( 0.0000,  0.0000,  0.0000)
   4 Pt     5.613014    3.240675    5.994397    ( 0.0000,  0.0000,  0.0000)
   5 Pt     8.419520    3.240675    5.994395    ( 0.0000,  0.0000,  0.0000)
   6 Pt     4.209760    5.671181    5.994396    ( 0.0000,  0.0000,  0.0000)
   7 Pt     7.016267    5.671181    5.994395    ( 0.0000,  0.0000,  0.0000)
   8 Pt     9.822774    5.671181    5.994395    ( 0.0000,  0.0000,  0.0000)
   9 Pt    -0.000000    1.620338    8.291541    ( 0.0000,  0.0000,  0.0000)
  10 Pt     2.806507    1.620338    8.291541    ( 0.0000,  0.0000,  0.0000)
  11 Pt     5.613013    1.620338    8.291541    ( 0.0000,  0.0000,  0.0000)
  12 Pt     1.403254    4.050843    8.291541    ( 0.0000,  0.0000,  0.0000)
  13 Pt     4.209760    4.050843    8.291541    ( 0.0000,  0.0000,  0.0000)
  14 Pt     7.016266    4.050843    8.291541    ( 0.0000,  0.0000,  0.0000)
  15 Pt     2.806506    6.481350    8.291541    ( 0.0000,  0.0000,  0.0000)
  16 Pt     5.613014    6.481350    8.291541    ( 0.0000,  0.0000,  0.0000)
  17 Pt     8.419520    6.481351    8.291541    ( 0.0000,  0.0000,  0.0000)
  18 Pt    -0.000000   -0.000000   10.588614    ( 0.0000,  0.0000,  0.0000)
  19 Pt     2.806507   -0.000001   10.588615    ( 0.0000,  0.0000,  0.0000)
  20 Pt     5.613014   -0.000001   10.588615    ( 0.0000,  0.0000,  0.0000)
  21 Pt     1.403253    2.430506   10.588615    ( 0.0000,  0.0000,  0.0000)
  22 Pt     4.209760    2.430506   10.588611    ( 0.0000,  0.0000,  0.0000)
  23 Pt     7.016268    2.430506   10.588615    ( 0.0000,  0.0000,  0.0000)
  24 Pt     2.806506    4.861013   10.588615    ( 0.0000,  0.0000,  0.0000)
  25 Pt     5.613014    4.861013   10.588615    ( 0.0000,  0.0000,  0.0000)
  26 Pt     8.419520    4.861012   10.588614    ( 0.0000,  0.0000,  0.0000)

Unit cell:
           periodic     x           y           z      points  spacing
  1. axis:    yes    8.419520    0.000000    0.000000    42     0.1736
  2. axis:    yes    4.209760    7.291519    0.000000    42     0.1736
  3. axis:    no     0.000000    0.000000   16.583006    84     0.1974

  Lengths:   8.419520   8.419520  16.583006
  Angles:   90.000000  90.000000  60.000000

Effective grid spacing dv^(1/3) = 0.1901

     iter     time        total  log10-change:
                         energy  eigst   dens
iter:   1 15:48:02  -161.873679  -3.35
iter:   2 15:48:07  -161.841326  -3.91  -2.67
iter:   3 15:48:13  -161.845323c -4.65  -3.19
iter:   4 15:48:18  -161.840689c -5.34  -3.15
iter:   5 15:48:23  -161.839701c -5.31  -3.46
iter:   6 15:48:28  -161.840550c -5.29  -3.66
iter:   7 15:48:33  -161.839417c -6.31  -3.82
iter:   8 15:48:38  -161.838790c -6.39  -4.14c
iter:   9 15:48:43  -161.838943c -7.25  -4.37c
iter:  10 15:48:48  -161.838949c -7.25  -4.43c
iter:  11 15:48:53  -161.839019c -7.54c -4.54c

Converged after 11 iterations.

Dipole moment: (-0.172871, -0.099807, 0.000135) |e|*Ang

Energy contributions relative to reference atoms: (reference = -13510134.794721)

Kinetic:       -318.912213
Potential:     +246.388433
External:        +0.000000
XC:             -73.791124
Entropy (-ST):   -1.817057
Local:          -14.615587
--------------------------
Free energy:   -162.747548
Extrapolated:  -161.839019

Showing only first 2 kpts
 Kpt  Band  Eigenvalues  Occupancy
  0   214      1.26958    1.30756
  0   215      1.26959    1.30753
  0   216      1.28495    1.23646
  0   217      1.32304    1.05052

  1   214      1.10660    1.81196
  1   215      1.11395    1.79906
  1   216      1.16754    1.67944
  1   217      1.16754    1.67943


Fermi level: 1.33315

No gap

Forces in eV/Ang:
  0 Pt   -0.00003   -0.00001   -0.03773
  1 Pt   -0.00000   -0.00008   -0.03765
  2 Pt    0.00003   -0.00001   -0.03773
  3 Pt   -0.00007    0.00004   -0.03765
  4 Pt    0.00007    0.00004   -0.03765
  5 Pt    0.00000    0.00001   -0.03781
  6 Pt   -0.00000    0.00003   -0.03773
  7 Pt    0.00001   -0.00001   -0.03781
  8 Pt   -0.00001   -0.00001   -0.03781
  9 Pt    0.00000    0.00004   -0.00051
 10 Pt    0.00001    0.00001   -0.00050
 11 Pt   -0.00001    0.00001   -0.00050
 12 Pt    0.00007   -0.00004   -0.00050
 13 Pt   -0.00000   -0.00001   -0.00050
 14 Pt   -0.00007   -0.00004   -0.00050
 15 Pt   -0.00003   -0.00002   -0.00051
 16 Pt    0.00003   -0.00002   -0.00051
 17 Pt    0.00000    0.00008   -0.00050
 18 Pt    0.00000   -0.00000    0.03727
 19 Pt   -0.00003   -0.00005    0.03731
 20 Pt    0.00003   -0.00005    0.03731
 21 Pt   -0.00006    0.00000    0.03731
 22 Pt   -0.00000   -0.00000    0.03701
 23 Pt    0.00006    0.00000    0.03731
 24 Pt   -0.00003    0.00005    0.03731
 25 Pt    0.00003    0.00005    0.03731
 26 Pt   -0.00000    0.00000    0.03723

System changes: positions 

Initializing position-dependent things.

Density initialized from wave functions
                                            
                                            
                                            
                                            
                                            
                 Pt     Pt     Pt           
            Pt     Pt     Pt                
       Pt     Pt  Pt Pt  Pt    Pt           
             Pt     Pt     Pt               
        Pt     Pt     Pt                    
                     Pt     Pt    Pt        
                Pt     Pt     Pt            
                                            
           Pt     Pt     Pt                 
                                            
                                            
                                            
                                            

Positions:
   0 Pt     1.403252    0.810168    5.987662    ( 0.0000,  0.0000,  0.0000)
   1 Pt     4.209760    0.810164    5.987667    ( 0.0000,  0.0000,  0.0000)
   2 Pt     7.016269    0.810168    5.987662    ( 0.0000,  0.0000,  0.0000)
   3 Pt     2.806502    3.240678    5.987667    ( 0.0000,  0.0000,  0.0000)
   4 Pt     5.613018    3.240678    5.987667    ( 0.0000,  0.0000,  0.0000)
   5 Pt     8.419520    3.240676    5.987657    ( 0.0000,  0.0000,  0.0000)
   6 Pt     4.209760    5.671183    5.987662    ( 0.0000,  0.0000,  0.0000)
   7 Pt     7.016268    5.671181    5.987657    ( 0.0000,  0.0000,  0.0000)
   8 Pt     9.822773    5.671181    5.987657    ( 0.0000,  0.0000,  0.0000)
   9 Pt    -0.000000    1.620340    8.291581    ( 0.0000,  0.0000,  0.0000)
  10 Pt     2.806508    1.620338    8.291581    ( 0.0000,  0.0000,  0.0000)
  11 Pt     5.613013    1.620338    8.291581    ( 0.0000,  0.0000,  0.0000)
  12 Pt     1.403258    4.050841    8.291581    ( 0.0000,  0.0000,  0.0000)
  13 Pt     4.209760    4.050842    8.291581    ( 0.0000,  0.0000,  0.0000)
  14 Pt     7.016263    4.050841    8.291581    ( 0.0000,  0.0000,  0.0000)
  15 Pt     2.806505    6.481349    8.291581    ( 0.0000,  0.0000,  0.0000)
  16 Pt     5.613016    6.481349    8.291581    ( 0.0000,  0.0000,  0.0000)
  17 Pt     8.419520    6.481355    8.291581    ( 0.0000,  0.0000,  0.0000)
  18 Pt    -0.000000   -0.000000   10.595351    ( 0.0000,  0.0000,  0.0000)
  19 Pt     2.806505   -0.000003   10.595354    ( 0.0000,  0.0000,  0.0000)
  20 Pt     5.613015   -0.000003   10.595354    ( 0.0000,  0.0000,  0.0000)
  21 Pt     1.403250    2.430506   10.595354    ( 0.0000,  0.0000,  0.0000)
  22 Pt     4.209760    2.430506   10.595335    ( 0.0000,  0.0000,  0.0000)
  23 Pt     7.016271    2.430506   10.595354    ( 0.0000,  0.0000,  0.0000)
  24 Pt     2.806505    4.861016   10.595354    ( 0.0000,  0.0000,  0.0000)
  25 Pt     5.613016    4.861016   10.595354    ( 0.0000,  0.0000,  0.0000)
  26 Pt     8.419520    4.861012   10.595349    ( 0.0000,  0.0000,  0.0000)

Unit cell:
           periodic     x           y           z      points  spacing
  1. axis:    yes    8.419520    0.000000    0.000000    42     0.1736
  2. axis:    yes    4.209760    7.291519    0.000000    42     0.1736
  3. axis:    no     0.000000    0.000000   16.583006    84     0.1974

  Lengths:   8.419520   8.419520  16.583006
  Angles:   90.000000  90.000000  60.000000

Effective grid spacing dv^(1/3) = 0.1901

     iter     time        total  log10-change:
                         energy  eigst   dens
iter:   1 15:48:59  -161.923728  -3.02
iter:   2 15:49:04  -161.847735  -3.61  -2.52
iter:   3 15:49:09  -161.851419c -4.42  -3.05
iter:   4 15:49:14  -161.846688c -5.15  -3.07
iter:   5 15:49:19  -161.844524c -4.91  -3.27
iter:   6 15:49:24  -161.845712c -4.95  -3.49
iter:   7 15:49:29  -161.843859c -5.93  -3.64
iter:   8 15:49:34  -161.842992c -6.09  -3.99
iter:   9 15:49:39  -161.843387c -6.68  -4.19c
iter:  10 15:49:44  -161.843298c -7.17  -4.50c
iter:  11 15:49:49  -161.843344c -7.66c -4.73c

Converged after 11 iterations.

Dipole moment: (-0.168282, -0.097158, -0.000392) |e|*Ang

Energy contributions relative to reference atoms: (reference = -13510134.794721)

Kinetic:       -324.307980
Potential:     +250.991371
External:        +0.000000
XC:             -73.012716
Entropy (-ST):   -1.814030
Local:          -14.607004
--------------------------
Free energy:   -162.750359
Extrapolated:  -161.843344

Showing only first 2 kpts
 Kpt  Band  Eigenvalues  Occupancy
  0   214      1.26571    1.29867
  0   215      1.26572    1.29859
  0   216      1.27804    1.24154
  0   217      1.31287    1.07213

  1   214      1.09953    1.81406
  1   215      1.11406    1.78805
  1   216      1.16469    1.67133
  1   217      1.16469    1.67131


Fermi level: 1.32732

No gap

Forces in eV/Ang:
  0 Pt   -0.00005   -0.00003   -0.00447
  1 Pt   -0.00000   -0.00017   -0.00433
  2 Pt    0.00005   -0.00003   -0.00447
  3 Pt   -0.00015    0.00009   -0.00433
  4 Pt    0.00015    0.00009   -0.00433
  5 Pt    0.00000    0.00002   -0.00465
  6 Pt   -0.00000    0.00005   -0.00447
  7 Pt    0.00002   -0.00001   -0.00465
  8 Pt   -0.00002   -0.00001   -0.00465
  9 Pt   -0.00000    0.00008    0.00052
 10 Pt    0.00001    0.00000    0.00050
 11 Pt   -0.00001    0.00000    0.00050
 12 Pt    0.00013   -0.00008    0.00054
 13 Pt   -0.00000   -0.00001    0.00050
 14 Pt   -0.00013   -0.00008    0.00054
 15 Pt   -0.00007   -0.00004    0.00052
 16 Pt    0.00007   -0.00004    0.00052
 17 Pt    0.00000    0.00015    0.00054
 18 Pt    0.00000   -0.00000    0.00737
 19 Pt   -0.00006   -0.00011    0.00744
 20 Pt    0.00006   -0.00011    0.00744
 21 Pt   -0.00013    0.00000    0.00744
 22 Pt    0.00000   -0.00000    0.00684
 23 Pt    0.00013    0.00000    0.00744
 24 Pt   -0.00006    0.00011    0.00744
 25 Pt    0.00006    0.00011    0.00744
 26 Pt   -0.00000    0.00000    0.00725

Writing to Pt.gpw (mode='')


  ___ ___ ___ _ _ _  
 |   |   |_  | | | | 
 | | | | | . | | | | 
 |__ |  _|___|_____|  22.8.0
 |___|_|             

User:   jesfra@vera36-2
Date:   Fri Feb 24 15:49:50 2023
Arch:   x86_64
Pid:    1338438
CWD:    /cephyr/users/jesfra/Vera/A4
Python: 3.10.4
gpaw:   /apps/Arch/software/GPAW/22.8.0-foss-2022a/lib/python3.10/site-packages/gpaw
_gpaw:  /apps/Arch/software/GPAW/22.8.0-foss-2022a/lib/python3.10/site-packages/
        _gpaw.cpython-310-x86_64-linux-gnu.so
ase:    /apps/Arch/software/ASE/3.22.1-foss-2022a/lib/python3.10/site-packages/ase (version 3.22.1)
numpy:  /apps/Arch/software/SciPy-bundle/2022.05-foss-2022a/lib/python3.10/site-packages/numpy (version 1.22.3)
scipy:  /apps/Arch/software/SciPy-bundle/2022.05-foss-2022a/lib/python3.10/site-packages/scipy (version 1.8.1)
libxc:  5.2.3
units:  Angstrom and eV
cores: 32
OpenMP: False
OMP_NUM_THREADS: 1

Input parameters:
  kpts: [4 4 1]
  mode: {ecut: 450.00000000000006,
         name: pw}
  xc: PBE

Timing:                                      incl.     excl.
-------------------------------------------------------------------
Density initialized from wave functions:     0.873     0.699   0.2% |
 Symmetrize density:                         0.175     0.175   0.1% |
Forces:                                      2.684     2.684   0.9% |
Hamiltonian:                                 0.753     0.015   0.0% |
 Atomic:                                     0.001     0.001   0.0% |
  XC Correction:                             0.000     0.000   0.0% |
 Calculate atomic Hamiltonians:              0.163     0.163   0.1% |
 Communicate:                                0.376     0.376   0.1% |
 Initialize Hamiltonian:                     0.000     0.000   0.0% |
 Poisson:                                    0.002     0.002   0.0% |
 XC 3D grid:                                 0.196     0.196   0.1% |
LCAO initialization:                        10.190     0.091   0.0% |
 LCAO eigensolver:                           0.819     0.001   0.0% |
  Calculate projections:                     0.000     0.000   0.0% |
  DenseAtomicCorrection:                     0.000     0.000   0.0% |
  Distribute overlap matrix:                 0.571     0.571   0.2% |
  Orbital Layouts:                           0.213     0.213   0.1% |
  Potential matrix:                          0.024     0.024   0.0% |
  Sum over cells:                            0.010     0.010   0.0% |
 LCAO to grid:                               8.970     8.970   3.0% ||
 Set positions (LCAO WFS):                   0.311     0.249   0.1% |
  Basic WFS set positions:                   0.004     0.004   0.0% |
  Basis functions set positions:             0.000     0.000   0.0% |
  P tci:                                     0.001     0.001   0.0% |
  ST tci:                                    0.029     0.029   0.0% |
  mktci:                                     0.029     0.029   0.0% |
PWDescriptor:                                0.272     0.272   0.1% |
Redistribute:                                0.003     0.003   0.0% |
SCF-cycle:                                 276.816     2.019   0.7% |
 Davidson:                                 249.043    31.988  10.8% |---|
  Apply H:                                  17.932    17.418   5.9% |-|
   HMM T:                                    0.514     0.514   0.2% |
  Subspace diag:                            35.323     0.021   0.0% |
   calc_h_matrix:                           22.849     3.528   1.2% |
    Apply H:                                19.321    18.826   6.4% |--|
     HMM T:                                  0.495     0.495   0.2% |
   diagonalize:                              6.362     6.362   2.2% ||
   rotate_psi:                               6.090     6.090   2.1% ||
  calc. matrices:                           61.407    25.892   8.8% |---|
   Apply H:                                 35.515    34.521  11.7% |----|
    HMM T:                                   0.993     0.993   0.3% |
  diagonalize:                              89.564    89.564  30.4% |-----------|
  rotate_psi:                               12.831    12.831   4.4% |-|
 Density:                                   16.057     0.001   0.0% |
  Atomic density matrices:                   0.239     0.239   0.1% |
  Mix:                                       3.406     3.406   1.2% |
  Multipole moments:                         0.010     0.010   0.0% |
  Pseudo density:                           12.400     9.494   3.2% ||
   Symmetrize density:                       2.907     2.907   1.0% |
 Hamiltonian:                                8.683     0.179   0.1% |
  Atomic:                                    0.011     0.011   0.0% |
   XC Correction:                            0.000     0.000   0.0% |
  Calculate atomic Hamiltonians:             2.109     2.109   0.7% |
  Communicate:                               3.887     3.887   1.3% ||
  Poisson:                                   0.033     0.033   0.0% |
  XC 3D grid:                                2.465     2.465   0.8% |
 Orthonormalize:                             1.013     0.002   0.0% |
  calc_s_matrix:                             0.125     0.125   0.0% |
  inverse-cholesky:                          0.173     0.173   0.1% |
  projections:                               0.485     0.485   0.2% |
  rotate_psi_s:                              0.228     0.228   0.1% |
Set symmetry:                                0.003     0.003   0.0% |
Other:                                       3.259     3.259   1.1% |
-------------------------------------------------------------------
Total:                                               294.854 100.0%

Memory usage: 428.18 MiB
Date: Fri Feb 24 15:49:50 2023
System changes: positions, numbers, cell, pbc, initial_charges, initial_magmoms 

Initialize ...

species:
  Rh:
    name: Rhodium
    id: 4e1d209aee696a641de1ffa1459b299f
    Z: 45.0
    valence: 15
    core: 30
    charge: 0.0
    file: /apps/Common/software/GPAW-setups/0.9.20000/Rh.PBE.gz
    compensation charges: {type: gauss,
                           rc: 0.38,
                           lmax: 2}
    cutoffs: {filter: 2.48,
              core: 2.35}
    valence states:
      #              energy  rcut
      - 5s(1.00)    -4.297   1.270
      - 4p(6.00)   -50.429   1.381
      - 5p(0.00)    -0.852   1.381
      - 4d(8.00)    -5.942   1.244
      -  s          22.915   1.270
      -  d          21.270   1.244
  
    # Using partial waves for Rh as LCAO basis

Reference energy: -3513635.469005  # eV

Spin-paired calculation

Convergence criteria:
 Maximum [total energy] change in last 3 cyles: 0.0005 eV / electron
 Maximum integral of absolute [dens]ity change: 0.0001 electrons / valence electron
 Maximum integral of absolute [eigenst]ate change: 4e-08 eV^2 / valence electron
 Maximum number of scf [iter]ations: 333
 (Square brackets indicate name in SCF output, whereas a 'c' in
 the SCF output indicates the quantity has converged.)

Symmetries present (total): 6

  ( 1  0  0)  ( 1 -1  0)  ( 0  1  0)  ( 0 -1  0)  (-1  1  0)  (-1  0  0)
  ( 0  1  0)  ( 0 -1  0)  ( 1  0  0)  ( 1 -1  0)  (-1  0  0)  (-1  1  0)
  ( 0  0  1)  ( 0  0  1)  ( 0  0  1)  ( 0  0  1)  ( 0  0  1)  ( 0  0  1)
Note: your k-points are not as symmetric as your crystal!

16 k-points: 4 x 4 x 1 Monkhorst-Pack grid
6 k-points in the irreducible part of the Brillouin zone
       k-points in crystal coordinates                weights
   0:     0.12500000   -0.12500000    0.00000000          2/16
   1:     0.12500000    0.12500000    0.00000000          2/16
   2:     0.37500000   -0.37500000    0.00000000          2/16
   3:     0.37500000   -0.12500000    0.00000000          4/16
   4:     0.37500000    0.12500000    0.00000000          4/16
   5:     0.37500000    0.37500000    0.00000000          2/16

Wave functions: Plane wave expansion
  Cutoff energy: 450.000 eV
  Number of coefficients (min, max): 20446, 20512
  Pulay-stress correction: 0.000000 eV/Ang^3 (de/decut=0.000000)
  Using FFTW library
  ScaLapack parameters: grid=1x1, blocksize=None
  Wavefunction extrapolation:
    Improved wavefunction reuse through dual PAW basis 

Occupation numbers: Fermi-Dirac:
  width: 0.1000  # eV
 

Eigensolver
   Davidson(niter=2) 

Densities:
  Coarse grid: 40*40*81 grid
  Fine grid: 80*80*162 grid
  Total Charge: 0.000000 

Density mixing:
  Method: separate
  Backend: pulay
  Linear mixing parameter: 0.05
  old densities: 5
  Damping of long wavelength oscillations: 50 

Hamiltonian:
  XC and Coulomb potentials evaluated on a 80*80*162 grid
  Using the PBE Exchange-Correlation functional
  External potential:
    NoExternalPotential
 

XC parameters: PBE with 2 nearest neighbor stencil

Memory estimate:
  Process memory now: 428.18 MiB
  Calculator: 330.84 MiB
    Density: 3.62 MiB
      Arrays: 1.63 MiB
      Localized functions: 1.35 MiB
      Mixer: 0.64 MiB
    Hamiltonian: 1.09 MiB
      Arrays: 1.07 MiB
      XC: 0.00 MiB
      Poisson: 0.00 MiB
      vbar: 0.03 MiB
    Wavefunctions: 326.12 MiB
      Arrays psit_nG: 231.92 MiB
      Eigensolver: 88.19 MiB
      Projections: 0.34 MiB
      Projectors: 0.44 MiB
      PW-descriptor: 5.22 MiB

Total number of cores used: 32
Parallelization over k-points: 2
Domain decomposition: 2 x 2 x 4

Number of atoms: 27
Number of atomic orbitals: 324
Number of bands in calculation: 247
Number of valence electrons: 405
Bands to converge: occupied

... initialized

Initializing position-dependent things.

Density initialized from atomic densities
Creating initial wave functions:
  247 bands from LCAO basis set

                                           
                                           
                                           
                                           
                Rh     Rh     Rh           
                                           
            Rh   RRh    RRh    Rh          
       Rh     Rh    Rh                     
             Rh    Rh     Rh               
        Rh     Rh   RRh    Rh    Rh        
                                           
                Rh    Rh     Rh            
           Rh    Rh     Rh                 
                                           
                                           
                                           
                                           

Positions:
   0 Rh     1.357291    0.783633    6.000000    ( 0.0000,  0.0000,  0.0000)
   1 Rh     4.071874    0.783633    6.000000    ( 0.0000,  0.0000,  0.0000)
   2 Rh     6.786457    0.783633    6.000000    ( 0.0000,  0.0000,  0.0000)
   3 Rh     2.714583    3.134530    6.000000    ( 0.0000,  0.0000,  0.0000)
   4 Rh     5.429166    3.134530    6.000000    ( 0.0000,  0.0000,  0.0000)
   5 Rh     8.143749    3.134530    6.000000    ( 0.0000,  0.0000,  0.0000)
   6 Rh     4.071874    5.485428    6.000000    ( 0.0000,  0.0000,  0.0000)
   7 Rh     6.786457    5.485428    6.000000    ( 0.0000,  0.0000,  0.0000)
   8 Rh     9.501040    5.485428    6.000000    ( 0.0000,  0.0000,  0.0000)
   9 Rh    -0.000000    1.567265    8.216448    ( 0.0000,  0.0000,  0.0000)
  10 Rh     2.714583    1.567265    8.216448    ( 0.0000,  0.0000,  0.0000)
  11 Rh     5.429166    1.567265    8.216448    ( 0.0000,  0.0000,  0.0000)
  12 Rh     1.357291    3.918163    8.216448    ( 0.0000,  0.0000,  0.0000)
[...]
 15 Rh    0.00001    0.00000   -0.00061
 16 Rh   -0.00001    0.00000   -0.00061
 17 Rh    0.00000    0.00018   -0.00070
 18 Rh   -0.00000   -0.00000   -0.05132
 19 Rh    0.00005    0.00013   -0.05093
 20 Rh   -0.00005    0.00013   -0.05093
 21 Rh    0.00014   -0.00002   -0.05093
 22 Rh    0.00000    0.00000   -0.05081
 23 Rh   -0.00014   -0.00002   -0.05093
 24 Rh    0.00009   -0.00011   -0.05093
 25 Rh   -0.00009   -0.00011   -0.05093
 26 Rh   -0.00000    0.00000   -0.05076

System changes: positions 

Initializing position-dependent things.

Density initialized from wave functions
                                           
                                           
                                           
                                           
                Rh     Rh     Rh           
                                           
            Rh   RRh    RRh    Rh          
       Rh     Rh    Rh                     
             Rh    Rh     Rh               
        Rh     Rh   RRh    Rh    Rh        
                                           
                Rh    Rh     Rh            
           Rh    Rh     Rh                 
                                           
                                           
                                           
                                           

Positions:
   0 Rh     1.357287    0.783630    6.057309    ( 0.0000,  0.0000,  0.0000)
   1 Rh     4.071874    0.783637    6.057336    ( 0.0000,  0.0000,  0.0000)
   2 Rh     6.786462    0.783630    6.057309    ( 0.0000,  0.0000,  0.0000)
   3 Rh     2.714587    3.134528    6.057336    ( 0.0000,  0.0000,  0.0000)
   4 Rh     5.429162    3.134528    6.057336    ( 0.0000,  0.0000,  0.0000)
   5 Rh     8.143749    3.134517    6.057321    ( 0.0000,  0.0000,  0.0000)
   6 Rh     4.071874    5.485433    6.057309    ( 0.0000,  0.0000,  0.0000)
   7 Rh     6.786446    5.485435    6.057321    ( 0.0000,  0.0000,  0.0000)
   8 Rh     9.501051    5.485435    6.057321    ( 0.0000,  0.0000,  0.0000)
   9 Rh    -0.000000    1.567272    8.216524    ( 0.0000,  0.0000,  0.0000)
  10 Rh     2.714568    1.567257    8.216521    ( 0.0000,  0.0000,  0.0000)
  11 Rh     5.429180    1.567257    8.216521    ( 0.0000,  0.0000,  0.0000)
  12 Rh     1.357276    3.918172    8.216522    ( 0.0000,  0.0000,  0.0000)
  13 Rh     4.071874    3.918180    8.216521    ( 0.0000,  0.0000,  0.0000)
  14 Rh     6.786472    3.918172    8.216522    ( 0.0000,  0.0000,  0.0000)
  15 Rh     2.714577    6.269057    8.216524    ( 0.0000,  0.0000,  0.0000)
  16 Rh     5.429172    6.269057    8.216524    ( 0.0000,  0.0000,  0.0000)
  17 Rh     8.143749    6.269043    8.216522    ( 0.0000,  0.0000,  0.0000)
  18 Rh     0.000000    0.000000   10.375717    ( 0.0000,  0.0000,  0.0000)
  19 Rh     2.714595   -0.000007   10.375697    ( 0.0000,  0.0000,  0.0000)
  20 Rh     5.429153   -0.000007   10.375697    ( 0.0000,  0.0000,  0.0000)
  21 Rh     1.357291    2.350912   10.375697    ( 0.0000,  0.0000,  0.0000)
  22 Rh     4.071874    2.350898   10.375680    ( 0.0000,  0.0000,  0.0000)
  23 Rh     6.786457    2.350912   10.375697    ( 0.0000,  0.0000,  0.0000)
  24 Rh     2.714570    4.701788   10.375697    ( 0.0000,  0.0000,  0.0000)
  25 Rh     5.429178    4.701788   10.375697    ( 0.0000,  0.0000,  0.0000)
  26 Rh     8.143749    4.701796   10.375698    ( 0.0000,  0.0000,  0.0000)

Unit cell:
           periodic     x           y           z      points  spacing
  1. axis:    yes    8.143749    0.000000    0.000000    40     0.1763
  2. axis:    yes    4.071874    7.052693    0.000000    40     0.1763
  3. axis:    no     0.000000    0.000000   16.432895    81     0.2029

  Lengths:   8.143749   8.143749  16.432895
  Angles:   90.000000  90.000000  60.000000

Effective grid spacing dv^(1/3) = 0.1938

     iter     time        total  log10-change:
                         energy  eigst   dens
iter:   1 15:54:09  -183.242688  -2.91
iter:   2 15:54:13  -183.107181  -3.28  -2.38
iter:   3 15:54:17  -183.138763c -4.12  -2.88
iter:   4 15:54:21  -183.093346c -4.57  -2.65
iter:   5 15:54:26  -183.089914c -4.38  -3.15
iter:   6 15:54:30  -183.090074c -4.93  -3.51
iter:   7 15:54:34  -183.089724c -5.33  -3.62
iter:   8 15:54:38  -183.089635c -6.00  -3.81
iter:   9 15:54:43  -183.089613c -6.50  -4.08c
iter:  10 15:54:47  -183.089606c -6.61  -4.16c
iter:  11 15:54:51  -183.089566c -6.77  -4.18c
iter:  12 15:54:55  -183.089509c -6.69  -4.26c
iter:  13 15:55:00  -183.089510c -7.68c -4.75c

Converged after 13 iterations.

Dipole moment: (-0.260487, -0.150392, -0.000138) |e|*Ang

Energy contributions relative to reference atoms: (reference = -3513635.469005)

Kinetic:       -151.047615
Potential:      +76.230771
External:        +0.000000
XC:            -105.281351
Entropy (-ST):   -1.604842
Local:           -2.188894
--------------------------
Free energy:   -183.891931
Extrapolated:  -183.089510

Showing only first 2 kpts
 Kpt  Band  Eigenvalues  Occupancy
  0   200      1.60417    1.11381
  0   201      1.60418    1.11376
  0   202      1.60813    1.09426
  0   203      1.67504    0.76449

  1   200      1.54486    1.38923
  1   201      1.56058    1.32058
  1   202      1.56058    1.32056
  1   203      1.67422    0.76835


Fermi level: 1.62704

No gap

Forces in eV/Ang:
  0 Rh    0.00011    0.00007   -0.00918
  1 Rh   -0.00000    0.00008   -0.00950
  2 Rh   -0.00011    0.00007   -0.00918
  3 Rh    0.00007   -0.00004   -0.00950
  4 Rh   -0.00007   -0.00004   -0.00950
  5 Rh    0.00000    0.00007   -0.00942
  6 Rh    0.00000   -0.00013   -0.00918
  7 Rh    0.00006   -0.00004   -0.00942
  8 Rh   -0.00006   -0.00004   -0.00942
  9 Rh    0.00000    0.00000    0.00004
 10 Rh    0.00016    0.00009    0.00005
 11 Rh   -0.00016    0.00009    0.00005
 12 Rh    0.00013   -0.00007   -0.00006
 13 Rh    0.00000   -0.00019    0.00005
 14 Rh   -0.00013   -0.00007   -0.00006
 15 Rh   -0.00000   -0.00000    0.00004
 16 Rh    0.00000   -0.00000    0.00004
 17 Rh    0.00000    0.00015   -0.00006
 18 Rh   -0.00000    0.00000    0.01053
 19 Rh    0.00006    0.00012    0.01086
 20 Rh   -0.00006    0.00012    0.01086
 21 Rh    0.00013   -0.00001    0.01086
 22 Rh    0.00000    0.00000    0.01096
 23 Rh   -0.00013   -0.00001    0.01086
 24 Rh    0.00007   -0.00011    0.01086
 25 Rh   -0.00007   -0.00011    0.01086
 26 Rh   -0.00000    0.00000    0.01101

System changes: positions 

Initializing position-dependent things.

Density initialized from wave functions
                                           
                                           
                                           
                                           
                Rh     Rh     Rh           
                                           
            Rh   RRh    RRh    Rh          
       Rh     Rh    Rh                     
             Rh    Rh     Rh               
        Rh     Rh   RRh    Rh    Rh        
                                           
                Rh    Rh     Rh            
           Rh    Rh     Rh                 
                                           
                                           
                                           
                                           

Positions:
   0 Rh     1.357289    0.783631    6.056185    ( 0.0000,  0.0000,  0.0000)
   1 Rh     4.071874    0.783638    6.056207    ( 0.0000,  0.0000,  0.0000)
   2 Rh     6.786460    0.783631    6.056185    ( 0.0000,  0.0000,  0.0000)
   3 Rh     2.714587    3.134528    6.056207    ( 0.0000,  0.0000,  0.0000)
   4 Rh     5.429161    3.134528    6.056207    ( 0.0000,  0.0000,  0.0000)
   5 Rh     8.143749    3.134519    6.056194    ( 0.0000,  0.0000,  0.0000)
   6 Rh     4.071874    5.485431    6.056185    ( 0.0000,  0.0000,  0.0000)
   7 Rh     6.786447    5.485434    6.056194    ( 0.0000,  0.0000,  0.0000)
   8 Rh     9.501051    5.485434    6.056194    ( 0.0000,  0.0000,  0.0000)
   9 Rh    -0.000000    1.567272    8.216523    ( 0.0000,  0.0000,  0.0000)
  10 Rh     2.714571    1.567258    8.216520    ( 0.0000,  0.0000,  0.0000)
  11 Rh     5.429178    1.567258    8.216520    ( 0.0000,  0.0000,  0.0000)
  12 Rh     1.357278    3.918171    8.216520    ( 0.0000,  0.0000,  0.0000)
  13 Rh     4.071874    3.918177    8.216520    ( 0.0000,  0.0000,  0.0000)
  14 Rh     6.786471    3.918171    8.216520    ( 0.0000,  0.0000,  0.0000)
  15 Rh     2.714577    6.269057    8.216523    ( 0.0000,  0.0000,  0.0000)
  16 Rh     5.429172    6.269057    8.216523    ( 0.0000,  0.0000,  0.0000)
  17 Rh     8.143749    6.269045    8.216520    ( 0.0000,  0.0000,  0.0000)
  18 Rh     0.000000    0.000000   10.376855    ( 0.0000,  0.0000,  0.0000)
  19 Rh     2.714596   -0.000006   10.376840    ( 0.0000,  0.0000,  0.0000)
  20 Rh     5.429153   -0.000006   10.376840    ( 0.0000,  0.0000,  0.0000)
  21 Rh     1.357293    2.350912   10.376840    ( 0.0000,  0.0000,  0.0000)
  22 Rh     4.071874    2.350898   10.376824    ( 0.0000,  0.0000,  0.0000)
  23 Rh     6.786456    2.350912   10.376840    ( 0.0000,  0.0000,  0.0000)
  24 Rh     2.714572    4.701787   10.376840    ( 0.0000,  0.0000,  0.0000)
  25 Rh     5.429177    4.701787   10.376840    ( 0.0000,  0.0000,  0.0000)
  26 Rh     8.143749    4.701796   10.376842    ( 0.0000,  0.0000,  0.0000)

Unit cell:
           periodic     x           y           z      points  spacing
  1. axis:    yes    8.143749    0.000000    0.000000    40     0.1763
  2. axis:    yes    4.071874    7.052693    0.000000    40     0.1763
  3. axis:    no     0.000000    0.000000   16.432895    81     0.2029

  Lengths:   8.143749   8.143749  16.432895
  Angles:   90.000000  90.000000  60.000000

Effective grid spacing dv^(1/3) = 0.1938

     iter     time        total  log10-change:
                         energy  eigst   dens
iter:   1 15:55:05  -183.095151  -4.45
iter:   2 15:55:09  -183.089374  -4.82  -3.16
iter:   3 15:55:13  -183.091128c -5.47  -3.55
iter:   4 15:55:18  -183.088898c -5.92  -3.32
iter:   5 15:55:22  -183.088792c -5.89  -3.92
iter:   6 15:55:26  -183.088719c -6.71  -4.30c
iter:   7 15:55:30  -183.088758c -7.51c -4.42c

Converged after 7 iterations.

Dipole moment: (-0.261622, -0.151047, -0.000002) |e|*Ang

Energy contributions relative to reference atoms: (reference = -3513635.469005)

Kinetic:       -150.841294
Potential:      +75.944008
External:        +0.000000
XC:            -105.213338
Entropy (-ST):   -1.606537
Local:           -2.174864
--------------------------
Free energy:   -183.892026
Extrapolated:  -183.088758

Showing only first 2 kpts
 Kpt  Band  Eigenvalues  Occupancy
  0   200      1.60358    1.10910
  0   201      1.60360    1.10904
  0   202      1.60633    1.09553
  0   203      1.67304    0.76662

  1   200      1.54473    1.38321
  1   201      1.55874    1.32187
  1   202      1.55875    1.32186
  1   203      1.67239    0.76972


Fermi level: 1.62549

No gap

Forces in eV/Ang:
  0 Rh    0.00038    0.00022    0.00549
  1 Rh    0.00000    0.00020    0.00508
  2 Rh   -0.00038    0.00022    0.00549
  3 Rh    0.00017   -0.00010    0.00508
  4 Rh   -0.00017   -0.00010    0.00508
  5 Rh    0.00000    0.00025    0.00519
  6 Rh   -0.00000   -0.00044    0.00549
  7 Rh    0.00022   -0.00013    0.00519
  8 Rh   -0.00022   -0.00013    0.00519
  9 Rh    0.00000    0.00030    0.00020
 10 Rh    0.00045    0.00026    0.00024
 11 Rh   -0.00045    0.00026    0.00024
 12 Rh    0.00016   -0.00009    0.00009
 13 Rh    0.00000   -0.00053    0.00024
 14 Rh   -0.00016   -0.00009    0.00009
 15 Rh   -0.00026   -0.00015    0.00020
 16 Rh    0.00026   -0.00015    0.00020
 17 Rh    0.00000    0.00018    0.00009
 18 Rh    0.00000    0.00000   -0.00570
 19 Rh    0.00031    0.00021   -0.00524
 20 Rh   -0.00031    0.00021   -0.00524
 21 Rh    0.00034    0.00016   -0.00524
 22 Rh    0.00000    0.00000   -0.00508
 23 Rh   -0.00034    0.00016   -0.00524
 24 Rh    0.00003   -0.00037   -0.00524
 25 Rh   -0.00003   -0.00037   -0.00524
 26 Rh    0.00000    0.00000   -0.00509

Writing to Rh.gpw (mode='')

Surfaces energies:
Au = 1.0544222699453063 eV
Pt = 2.405745118444634 eV
Rh = 2.902136606004167 eV
Timing:                                      incl.     excl.
-------------------------------------------------------------------
Density initialized from wave functions:     1.044     0.839   0.2% |
 Symmetrize density:                         0.206     0.206   0.1% |
Forces:                                      3.124     3.124   0.9% |
Hamiltonian:                                 1.325     0.017   0.0% |
 Atomic:                                     0.001     0.001   0.0% |
  XC Correction:                             0.000     0.000   0.0% |
 Calculate atomic Hamiltonians:              0.214     0.214   0.1% |
 Communicate:                                0.393     0.393   0.1% |
 Initialize Hamiltonian:                     0.000     0.000   0.0% |
 Poisson:                                    0.004     0.004   0.0% |
 XC 3D grid:                                 0.696     0.696   0.2% |
LCAO initialization:                         9.113     0.090   0.0% |
 LCAO eigensolver:                           0.988     0.001   0.0% |
  Calculate projections:                     0.000     0.000   0.0% |
  DenseAtomicCorrection:                     0.000     0.000   0.0% |
  Distribute overlap matrix:                 0.605     0.605   0.2% |
  Orbital Layouts:                           0.346     0.346   0.1% |
  Potential matrix:                          0.027     0.027   0.0% |
  Sum over cells:                            0.009     0.009   0.0% |
 LCAO to grid:                               7.734     7.734   2.3% ||
 Set positions (LCAO WFS):                   0.300     0.238   0.1% |
  Basic WFS set positions:                   0.004     0.004   0.0% |
  Basis functions set positions:             0.000     0.000   0.0% |
  P tci:                                     0.001     0.001   0.0% |
  ST tci:                                    0.028     0.028   0.0% |
  mktci:                                     0.029     0.029   0.0% |
PWDescriptor:                                0.391     0.391   0.1% |
Redistribute:                                0.004     0.004   0.0% |
SCF-cycle:                                 322.531     1.442   0.4% |
 Davidson:                                 289.895    40.079  11.7% |----|
  Apply H:                                  20.926    20.335   6.0% |-|
   HMM T:                                    0.591     0.591   0.2% |
  Subspace diag:                            39.812     0.029   0.0% |
   calc_h_matrix:                           25.787     4.255   1.2% |
    Apply H:                                21.531    20.937   6.1% |-|
     HMM T:                                  0.594     0.594   0.2% |
   diagonalize:                              7.505     7.505   2.2% ||
   rotate_psi:                               6.492     6.492   1.9% ||
  calc. matrices:                           71.190    30.489   8.9% |---|
   Apply H:                                 40.701    39.538  11.6% |----|
    HMM T:                                   1.163     1.163   0.3% |
  diagonalize:                             103.779   103.779  30.4% |-----------|
  rotate_psi:                               14.108    14.108   4.1% |-|
 Density:                                   19.093     0.002   0.0% |
  Atomic density matrices:                   0.326     0.326   0.1% |
  Mix:                                       4.327     4.327   1.3% ||
  Multipole moments:                         0.015     0.015   0.0% |
  Pseudo density:                           14.423    10.851   3.2% ||
   Symmetrize density:                       3.572     3.572   1.0% |
 Hamiltonian:                               11.011     0.228   0.1% |
  Atomic:                                    0.017     0.017   0.0% |
   XC Correction:                            0.000     0.000   0.0% |
  Calculate atomic Hamiltonians:             2.824     2.824   0.8% |
  Communicate:                               4.770     4.770   1.4% ||
  Poisson:                                   0.040     0.040   0.0% |
  XC 3D grid:                                3.132     3.132   0.9% |
 Orthonormalize:                             1.090     0.002   0.0% |
  calc_s_matrix:                             0.133     0.133   0.0% |
  inverse-cholesky:                          0.196     0.196   0.1% |
  projections:                               0.538     0.538   0.2% |
  rotate_psi_s:                              0.220     0.220   0.1% |
Set symmetry:                                0.003     0.003   0.0% |
Other:                                       3.633     3.633   1.1% |
-------------------------------------------------------------------
Total:                                               341.168 100.0%

Memory usage: 428.95 MiB
Date: Fri Feb 24 15:55:31 2023
Surfaces energies:
Au = 1.0544222699453063 eV
Pt = 2.405745118444634 eV
Rh = 2.902136606004167 eV
Surfaces energies:
Au = 1.0544222699453063 eV
Pt = 2.405745118444634 eV
Rh = 2.902136606004167 eV
Surfaces energies:
Au = 1.0544222699453063 eV
Pt = 2.405745118444634 eV
Rh = 2.902136606004167 eV
Surfaces energies:
Au = 1.0544222699453063 eV
Pt = 2.405745118444634 eV
Rh = 2.902136606004167 eV
Surfaces energies:
Au = 1.0544222699453063 eV
Pt = 2.405745118444634 eV
Rh = 2.902136606004167 eV
Surfaces energies:
Au = 1.0544222699453063 eV
Pt = 2.405745118444634 eV
Rh = 2.902136606004167 eV
Surfaces energies:
Au = 1.0544222699453063 eV
Pt = 2.405745118444634 eV
Rh = 2.902136606004167 eV
Surfaces energies:
Au = 1.0544222699453063 eV
Pt = 2.405745118444634 eV
Rh = 2.902136606004167 eV
Surfaces energies:
Au = 1.0544222699453063 eV
Pt = 2.405745118444634 eV
Rh = 2.902136606004167 eV
Surfaces energies:
Au = 1.0544222699453063 eV
Pt = 2.405745118444634 eV
Rh = 2.902136606004167 eV
Surfaces energies:
Au = 1.0544222699453063 eV
Pt = 2.405745118444634 eV
Rh = 2.902136606004167 eV
Surfaces energies:
Au = 1.0544222699453063 eV
Pt = 2.405745118444634 eV
Rh = 2.902136606004167 eV
Surfaces energies:
Au = 1.0544222699453063 eV
Pt = 2.405745118444634 eV
Rh = 2.902136606004167 eV
Surfaces energies:
Au = 1.0544222699453063 eV
Pt = 2.405745118444634 eV
Rh = 2.902136606004167 eV
Surfaces energies:
Au = 1.0544222699453063 eV
Pt = 2.405745118444634 eV
Rh = 2.902136606004167 eV
Surfaces energies:
Au = 1.0544222699453063 eV
Pt = 2.405745118444634 eV
Rh = 2.902136606004167 eV
Surfaces energies:
Au = 1.0544222699453063 eV
Pt = 2.405745118444634 eV
Rh = 2.902136606004167 eV
Surfaces energies:
Au = 1.0544222699453063 eV
Pt = 2.405745118444634 eV
Rh = 2.902136606004167 eV
Surfaces energies:
Au = 1.0544222699453063 eV
Pt = 2.405745118444634 eV
Rh = 2.902136606004167 eV
Surfaces energies:
Au = 1.0544222699453063 eV
Pt = 2.405745118444634 eV
Rh = 2.902136606004167 eV
Surfaces energies:
Au = 1.0544222699453063 eV
Pt = 2.405745118444634 eV
Rh = 2.902136606004167 eV
Surfaces energies:
Au = 1.0544222699453063 eV
Pt = 2.405745118444634 eV
Rh = 2.902136606004167 eV
Surfaces energies:
Au = 1.0544222699453063 eV
Pt = 2.405745118444634 eV
Rh = 2.902136606004167 eV
Surfaces energies:
Au = 1.0544222699453063 eV
Pt = 2.405745118444634 eV
Rh = 2.902136606004167 eV
Surfaces energies:
Au = 1.0544222699453063 eV
Pt = 2.405745118444634 eV
Rh = 2.902136606004167 eV
Surfaces energies:
Au = 1.0544222699453063 eV
Pt = 2.405745118444634 eV
Rh = 2.902136606004167 eV
Surfaces energies:
Au = 1.0544222699453063 eV
Pt = 2.405745118444634 eV
Rh = 2.902136606004167 eV
Surfaces energies:
Au = 1.0544222699453063 eV
Pt = 2.405745118444634 eV
Rh = 2.902136606004167 eV
Surfaces energies:
Au = 1.0544222699453063 eV
Pt = 2.405745118444634 eV
Rh = 2.902136606004167 eV
Surfaces energies:
Au = 1.0544222699453063 eV
Pt = 2.405745118444634 eV
Rh = 2.902136606004167 eV
Surfaces energies:
Au = 1.0544222699453063 eV
Pt = 2.405745118444634 eV
Rh = 2.902136606004167 eV
