7
Lattice="16.0 0.0 0.0 0.0 16.0 0.0 0.0 0.0 16.0" Properties=species:S:1:pos:R:3:forces:R:3:magmoms:R:1 energy=-5.729085435542556 dipole="-0.0003194917737271806 -0.004856585775327695 0.0011171664540118467" magmom=0.0 free_energy=-5.76375560137146 pbc="F F F"
Na      10.85348020       8.75458555      10.16469558       0.00682960      -0.00475213       0.01062708       0.00000000
Na       7.63351767       8.00172910      10.75288395       0.00105752       0.00410771      -0.00277655       0.00000000
Na       8.64830785       9.64783530       7.72749972       0.00123280       0.00250744      -0.00181215       0.00000000
Na       8.55079842       7.21923121       5.33735855      -0.00154050      -0.00920255      -0.00631098       0.00000000
Na       9.52744644       6.22850813       8.39486663      -0.00001507       0.00489608      -0.00248472       0.00000000
Na       6.18559453       7.02899765       7.71336993       0.00251244       0.00392299      -0.00108013       0.00000000
Na       5.54501770      10.03018841       9.07743168      -0.01186519      -0.00123905       0.00538777       0.00000000
