8
Lattice="16.0 0.0 0.0 0.0 16.0 0.0 0.0 0.0 16.0" Properties=species:S:1:pos:R:3:forces:R:3:magmoms:R:1 energy=-7.240534303976648 dipole="-0.07174321006860744 -0.03203177465833926 -0.011840193665249459" magmom=0.0 free_energy=-7.240536103900249 pbc="F F F"
Na       7.69916046       5.17393498       7.97817030      -0.00236677      -0.01339757      -0.01193286       0.00000000
Na       6.73620352       7.02824251      10.56162621      -0.00925678       0.01560049      -0.00133306       0.00000000
Na      10.12837352       6.62685899      10.00218537       0.01375123      -0.00930777       0.00535538       0.00000000
Na       8.73962401       9.70173257       9.57956343       0.00457107      -0.00254525      -0.00196994       0.00000000
Na      10.64091001       6.65007603       6.81647187       0.00018200       0.00708906      -0.00025357       0.00000000
Na       6.13422140       8.45632521       7.61422693      -0.01113499       0.00431970       0.01025834       0.00000000
Na       7.61362805       6.84769151       5.10721679       0.00561182      -0.01536170      -0.00112643       0.00000000
Na       9.15404796       9.67902221       6.37877353       0.00123239       0.01626495      -0.00189274       0.00000000
