6
Lattice="16.0 0.0 0.0 0.0 16.0 0.0 0.0 0.0 16.0" Properties=species:S:1:pos:R:3:tags:I:1:forces:R:3:magmoms:R:1 energy=-4.890305091030343 dipole="-0.1112972592402798 0.06394798912534978 0.05286432158859885" magmom=0.0 free_energy=-4.890308869014963 pbc="F F F"
Na       7.23838614       8.27430387       8.69639961        0      -0.00385207      -0.00283184      -0.00712412       0.00000000
Na       6.51489318       6.07851834       6.39975047        1       0.00043321      -0.00040969       0.00453191       0.00000000
Na       7.46131364       5.18234273       9.67730956        2      -0.00041147       0.00030890      -0.00009336       0.00000000
Na       9.50504634       7.74949234      10.95843785        3       0.00287931      -0.00124078       0.00406454       0.00000000
Na       9.82777783      10.22417091       8.47448539        4       0.00139064       0.00312866       0.00008467       0.00000000
Na       7.98215817       9.18804878       5.66088086        5      -0.00001007       0.00185420       0.00088368       0.00000000
