
  ___ ___ ___ _ _ _  
 |   |   |_  | | | | 
 | | | | | . | | | | 
 |__ |  _|___|_____|  22.8.0
 |___|_|             

User:   jesfra@vera10-4
Date:   Fri Feb 24 20:08:13 2023
Arch:   x86_64
Pid:    4172827
CWD:    /cephyr/users/jesfra/Vera/A4
Python: 3.10.4
gpaw:   /apps/Arch/software/GPAW/22.8.0-foss-2022a/lib/python3.10/site-packages/gpaw
_gpaw:  /apps/Arch/software/GPAW/22.8.0-foss-2022a/lib/python3.10/site-packages/
        _gpaw.cpython-310-x86_64-linux-gnu.so
ase:    /apps/Arch/software/ASE/3.22.1-foss-2022a/lib/python3.10/site-packages/ase (version 3.22.1)
numpy:  /apps/Arch/software/SciPy-bundle/2022.05-foss-2022a/lib/python3.10/site-packages/numpy (version 1.22.3)
scipy:  /apps/Arch/software/SciPy-bundle/2022.05-foss-2022a/lib/python3.10/site-packages/scipy (version 1.8.1)
libxc:  5.2.3
units:  Angstrom and eV
cores: 32
OpenMP: False
OMP_NUM_THREADS: 1

Input parameters:
  kpts: {gamma: True}
  mode: {ecut: 450.00000000000006,
         name: pw}
  xc: PBE

System changes: positions, numbers, cell, pbc, initial_charges, initial_magmoms 

Initialize ...

species:
  O:
    name: Oxygen
    id: 32ecd46bf208036f09c70b0ec9a88b78
    Z: 8.0
    valence: 6
    core: 2
    charge: 0.0
    file: /apps/Common/software/GPAW-setups/0.9.20000/O.PBE.gz
    compensation charges: {type: gauss,
                           rc: 0.21,
                           lmax: 2}
    cutoffs: {filter: 1.17,
              core: 0.83}
    valence states:
      #              energy  rcut
      - 2s(2.00)   -23.961   0.688
      - 2p(4.00)    -9.029   0.598
      -  s           3.251   0.688
      -  p          18.182   0.598
      -  d           0.000   0.619
  
    # Using partial waves for O as LCAO basis

  C:
    name: Carbon
    id: 4aa54d4b901d75f77cc0ea3eec22967b
    Z: 6.0
    valence: 4
    core: 2
    charge: 0.0
    file: /apps/Common/software/GPAW-setups/0.9.20000/C.PBE.gz
    compensation charges: {type: gauss,
                           rc: 0.20,
                           lmax: 2}
    cutoffs: {filter: 1.14,
              core: 1.14}
    valence states:
      #              energy  rcut
      - 2s(2.00)   -13.751   0.635
      - 2p(2.00)    -5.284   0.635
      -  s          13.461   0.635
      -  p          21.927   0.635
      -  d           0.000   0.635
  
    # Using partial waves for C as LCAO basis

Reference energy: -3068.480417  # eV

Spin-paired calculation

Convergence criteria:
 Maximum [total energy] change in last 3 cyles: 0.0005 eV / electron
 Maximum integral of absolute [dens]ity change: 0.0001 electrons / valence electron
 Maximum integral of absolute [eigenst]ate change: 4e-08 eV^2 / valence electron
 Maximum number of scf [iter]ations: 333
 (Square brackets indicate name in SCF output, whereas a 'c' in
 the SCF output indicates the quantity has converged.)

Symmetries present (total): 8

  ( 1  0  0)  ( 1  0  0)  ( 0  1  0)  ( 0  1  0)  ( 0 -1  0)  ( 0 -1  0)
  ( 0  1  0)  ( 0 -1  0)  ( 1  0  0)  (-1  0  0)  ( 1  0  0)  (-1  0  0)
  ( 0  0  1)  ( 0  0  1)  ( 0  0  1)  ( 0  0  1)  ( 0  0  1)  ( 0  0  1)

  (-1  0  0)  (-1  0  0)
  ( 0  1  0)  ( 0 -1  0)
  ( 0  0  1)  ( 0  0  1)

1 k-point (Gamma)
1 k-point in the irreducible part of the Brillouin zone
       k-points in crystal coordinates                weights
   0:     0.00000000    0.00000000    0.00000000          1/1

Wave functions: Plane wave expansion
  Cutoff energy: 450.000 eV
  Number of coefficients: 37529 (reduced to 18765)
  Pulay-stress correction: 0.000000 eV/Ang^3 (de/decut=0.000000)
  Using FFTW library
  ScaLapack parameters: grid=1x1, blocksize=None
  Wavefunction extrapolation:
    Improved wavefunction reuse through dual PAW basis 

Occupation numbers: # Zero width 

Eigensolver
   Davidson(niter=2) 

Densities:
  Coarse grid: 60*60*60 grid
  Fine grid: 120*120*120 grid
  Total Charge: 0.000000 

Density mixing:
  Method: separate
  Backend: pulay
  Linear mixing parameter: 0.05
  old densities: 5
  Damping of long wavelength oscillations: 50 

Hamiltonian:
  XC and Coulomb potentials evaluated on a 120*120*120 grid
  Using the PBE Exchange-Correlation functional
  External potential:
    NoExternalPotential
 

XC parameters: PBE with 2 nearest neighbor stencil

Memory estimate:
  Process memory now: 312.04 MiB
  Calculator: 14.70 MiB
    Density: 3.41 MiB
      Arrays: 1.34 MiB
      Localized functions: 1.55 MiB
      Mixer: 0.51 MiB
    Hamiltonian: 0.91 MiB
      Arrays: 0.88 MiB
      XC: 0.00 MiB
      Poisson: 0.00 MiB
      vbar: 0.04 MiB
    Wavefunctions: 10.38 MiB
      Arrays psit_nG: 2.29 MiB
      Eigensolver: 3.73 MiB
      Projections: 0.00 MiB
      Projectors: 0.09 MiB
      PW-descriptor: 4.28 MiB

Total number of cores used: 32
Domain decomposition: 4 x 4 x 2

Number of atoms: 2
Number of atomic orbitals: 8
Number of bands in calculation: 8
Number of valence electrons: 10
Bands to converge: occupied

... initialized

Initializing position-dependent things.

Density initialized from atomic densities
Creating initial wave functions:
  8 bands from LCAO basis set

        .----------------------------.  
       /|                            |  
      / |                            |  
     /  |                            |  
    /   |                            |  
   /    |                            |  
  /     |                            |  
 *      |                            |  
 |      |                            |  
 |      |                            |  
 |      |          O                 |  
 |      |                            |  
 |      |          C                 |  
 |      |                            |  
 |      |                            |  
 |      .----------------------------.  
 |     /                            /   
 |    /                            /    
 |   /                            /     
 |  /                            /      
 | /                            /       
 |/                            /        
 *----------------------------*         

Positions:
   0 O      6.000000    6.000000    6.575170    ( 0.0000,  0.0000,  0.0000)
   1 C      6.000000    6.000000    5.424830    ( 0.0000,  0.0000,  0.0000)

Unit cell:
           periodic     x           y           z      points  spacing
  1. axis:    no    12.000000    0.000000    0.000000    60     0.2000
  2. axis:    no     0.000000   12.000000    0.000000    60     0.2000
  3. axis:    no     0.000000    0.000000   12.000000    60     0.2000

  Lengths:  12.000000  12.000000  12.000000
  Angles:   90.000000  90.000000  90.000000

Effective grid spacing dv^(1/3) = 0.2000

     iter     time        total  log10-change:
                         energy  eigst   dens
iter:   1 20:08:16   -14.756275
iter:   2 20:08:17   -14.699537  -1.16  -0.92
iter:   3 20:08:17   -14.333504  -1.48  -0.95
iter:   4 20:08:17   -14.268437  -2.08  -1.18
iter:   5 20:08:18   -14.218097  -1.54  -1.32
iter:   6 20:08:18   -14.219117  -2.62  -1.71
iter:   7 20:08:18   -14.195578  -2.44  -1.70
iter:   8 20:08:18   -14.194326  -3.46  -2.34
iter:   9 20:08:19   -14.194292c -4.84  -2.80
iter:  10 20:08:19   -14.194362c -4.50  -2.84
iter:  11 20:08:19   -14.194273c -5.01  -2.92
iter:  12 20:08:20   -14.194270c -5.74  -3.56
iter:  13 20:08:20   -14.194271c -6.54  -3.66
iter:  14 20:08:20   -14.194269c -6.78  -3.70
iter:  15 20:08:20   -14.194269c -7.43c -3.82
iter:  16 20:08:21   -14.194269c -7.06  -3.86
iter:  17 20:08:21   -14.194269c -7.43c -4.27c

Converged after 17 iterations.

Dipole moment: (-0.000000, -0.000000, 0.035490) |e|*Ang

Energy contributions relative to reference atoms: (reference = -3068.480417)

Kinetic:         +9.950350
Potential:      -13.501209
External:        +0.000000
XC:             -10.609378
Entropy (-ST):   +0.000000
Local:           -0.034032
--------------------------
Free energy:    -14.194269
Extrapolated:   -14.194269

 Band  Eigenvalues  Occupancy
    0    -29.03683    2.00000
    1    -14.07523    2.00000
    2    -11.56089    2.00000
    3    -11.56089    2.00000
    4     -8.97087    2.00000
    5     -2.09441    0.00000
    6     -2.09441    0.00000
    7     -0.22806    0.00000

Fermi level: -5.53264

Gap: 6.876 eV
Transition (v -> c):
  (s=0, k=0, n=4, [0.00, 0.00, 0.00]) -> (s=0, k=0, n=5, [0.00, 0.00, 0.00])

  ___ ___ ___ _ _ _  
 |   |   |_  | | | | 
 | | | | | . | | | | 
 |__ |  _|___|_____|  22.8.0
 |___|_|             

User:   jesfra@vera10-4
Date:   Fri Feb 24 20:08:21 2023
Arch:   x86_64
Pid:    4172827
CWD:    /cephyr/users/jesfra/Vera/A4
Python: 3.10.4
gpaw:   /apps/Arch/software/GPAW/22.8.0-foss-2022a/lib/python3.10/site-packages/gpaw
_gpaw:  /apps/Arch/software/GPAW/22.8.0-foss-2022a/lib/python3.10/site-packages/
        _gpaw.cpython-310-x86_64-linux-gnu.so
ase:    /apps/Arch/software/ASE/3.22.1-foss-2022a/lib/python3.10/site-packages/ase (version 3.22.1)
numpy:  /apps/Arch/software/SciPy-bundle/2022.05-foss-2022a/lib/python3.10/site-packages/numpy (version 1.22.3)
scipy:  /apps/Arch/software/SciPy-bundle/2022.05-foss-2022a/lib/python3.10/site-packages/scipy (version 1.8.1)
libxc:  5.2.3
units:  Angstrom and eV
cores: 32
OpenMP: False
OMP_NUM_THREADS: 1

Input parameters:
  kpts: {gamma: True}
  mode: {ecut: 450.00000000000006,
         name: pw}
  xc: PBE

Timing:                              incl.     excl.
-----------------------------------------------------------
Hamiltonian:                         0.150     0.008   0.1% |
 Atomic:                             0.000     0.000   0.0% |
  XC Correction:                     0.000     0.000   0.0% |
 Calculate atomic Hamiltonians:      0.005     0.005   0.1% |
 Communicate:                        0.033     0.033   0.4% |
 Initialize Hamiltonian:             0.000     0.000   0.0% |
 Poisson:                            0.001     0.001   0.0% |
 XC 3D grid:                         0.103     0.103   1.3% ||
LCAO initialization:                 0.118     0.077   0.9% |
 LCAO eigensolver:                   0.011     0.001   0.0% |
  Calculate projections:             0.000     0.000   0.0% |
  DenseAtomicCorrection:             0.000     0.000   0.0% |
  Distribute overlap matrix:         0.001     0.001   0.0% |
  Orbital Layouts:                   0.010     0.010   0.1% |
  Potential matrix:                  0.000     0.000   0.0% |
 LCAO to grid:                       0.023     0.023   0.3% |
 Set positions (LCAO WFS):           0.007     0.002   0.0% |
  Basic WFS set positions:           0.001     0.001   0.0% |
  Basis functions set positions:     0.000     0.000   0.0% |
  P tci:                             0.001     0.001   0.0% |
  ST tci:                            0.001     0.001   0.0% |
  mktci:                             0.002     0.002   0.0% |
PWDescriptor:                        0.714     0.714   8.8% |---|
SCF-cycle:                           4.638     0.010   0.1% |
 Davidson:                           0.852     0.070   0.9% |
  Apply H:                           0.170     0.169   2.1% ||
   HMM T:                            0.001     0.001   0.0% |
  Subspace diag:                     0.202     0.001   0.0% |
   calc_h_matrix:                    0.191     0.004   0.1% |
    Apply H:                         0.187     0.186   2.3% ||
     HMM T:                          0.001     0.001   0.0% |
   diagonalize:                      0.007     0.007   0.1% |
   rotate_psi:                       0.002     0.002   0.0% |
  calc. matrices:                    0.400     0.029   0.4% |
   Apply H:                          0.371     0.369   4.5% |-|
    HMM T:                           0.002     0.002   0.0% |
  diagonalize:                       0.008     0.008   0.1% |
  rotate_psi:                        0.002     0.002   0.0% |
 Density:                            2.420     0.001   0.0% |
  Atomic density matrices:           0.012     0.012   0.1% |
  Mix:                               0.532     0.532   6.6% |--|
  Multipole moments:                 0.002     0.002   0.0% |
  Pseudo density:                    1.873     0.145   1.8% ||
   Symmetrize density:               1.728     1.728  21.3% |--------|
 Hamiltonian:                        1.348     0.083   1.0% |
  Atomic:                            0.004     0.004   0.0% |
   XC Correction:                    0.000     0.000   0.0% |
  Calculate atomic Hamiltonians:     0.055     0.055   0.7% |
  Communicate:                       0.505     0.505   6.2% |-|
  Poisson:                           0.007     0.007   0.1% |
  XC 3D grid:                        0.694     0.694   8.5% |--|
 Orthonormalize:                     0.008     0.000   0.0% |
  calc_s_matrix:                     0.000     0.000   0.0% |
  inverse-cholesky:                  0.007     0.007   0.1% |
  projections:                       0.001     0.001   0.0% |
  rotate_psi_s:                      0.000     0.000   0.0% |
Set symmetry:                        0.005     0.005   0.1% |
Other:                               2.494     2.494  30.7% |-----------|
-----------------------------------------------------------
Total:                                         8.119 100.0%

Memory usage: 312.04 MiB
Date: Fri Feb 24 20:08:21 2023
System changes: positions, numbers, cell, pbc, initial_charges, initial_magmoms 

Initialize ...

species:
  O:
    name: Oxygen
    id: 32ecd46bf208036f09c70b0ec9a88b78
    Z: 8.0
    valence: 6
    core: 2
    charge: 0.0
    file: /apps/Common/software/GPAW-setups/0.9.20000/O.PBE.gz
    compensation charges: {type: gauss,
                           rc: 0.21,
                           lmax: 2}
    cutoffs: {filter: 1.17,
              core: 0.83}
    valence states:
      #              energy  rcut
      - 2s(2.00)   -23.961   0.688
      - 2p(4.00)    -9.029   0.598
      -  s           3.251   0.688
      -  p          18.182   0.598
      -  d           0.000   0.619
  
    # Using partial waves for O as LCAO basis

Reference energy: -4081.704602  # eV

Spin-polarized calculation.
Magnetic moment: 2.000000

Convergence criteria:
 Maximum [total energy] change in last 3 cyles: 0.0005 eV / electron
 Maximum integral of absolute [dens]ity change: 0.0001 electrons / valence electron
 Maximum integral of absolute [eigenst]ate change: 4e-08 eV^2 / valence electron
 Maximum number of scf [iter]ations: 333
 (Square brackets indicate name in SCF output, whereas a 'c' in
 the SCF output indicates the quantity has converged.)

Symmetries present (total): 16

  ( 1  0  0)  ( 1  0  0)  ( 1  0  0)  ( 1  0  0)  ( 0  1  0)  ( 0  1  0)
  ( 0  1  0)  ( 0  1  0)  ( 0 -1  0)  ( 0 -1  0)  ( 1  0  0)  ( 1  0  0)
  ( 0  0  1)  ( 0  0 -1)  ( 0  0  1)  ( 0  0 -1)  ( 0  0  1)  ( 0  0 -1)

  ( 0  1  0)  ( 0  1  0)  ( 0 -1  0)  ( 0 -1  0)  ( 0 -1  0)  ( 0 -1  0)
  (-1  0  0)  (-1  0  0)  ( 1  0  0)  ( 1  0  0)  (-1  0  0)  (-1  0  0)
  ( 0  0  1)  ( 0  0 -1)  ( 0  0  1)  ( 0  0 -1)  ( 0  0  1)  ( 0  0 -1)

  (-1  0  0)  (-1  0  0)  (-1  0  0)  (-1  0  0)
  ( 0  1  0)  ( 0  1  0)  ( 0 -1  0)  ( 0 -1  0)
  ( 0  0  1)  ( 0  0 -1)  ( 0  0  1)  ( 0  0 -1)

1 k-point (Gamma)
1 k-point in the irreducible part of the Brillouin zone
       k-points in crystal coordinates                weights
   0:     0.00000000    0.00000000    0.00000000          1/1

Wave functions: Plane wave expansion
  Cutoff energy: 450.000 eV
  Number of coefficients: 37529 (reduced to 18765)
  Pulay-stress correction: 0.000000 eV/Ang^3 (de/decut=0.000000)
  Using FFTW library
  ScaLapack parameters: grid=1x1, blocksize=None
  Wavefunction extrapolation:
    Improved wavefunction reuse through dual PAW basis 

Occupation numbers: # Zero width 

Eigensolver
   Davidson(niter=2) 

Densities:
  Coarse grid: 60*60*60 grid
  Fine grid: 120*120*120 grid
  Total Charge: 0.000000 

Density mixing:
  Method: difference
  Backend: pulay
  Linear mixing parameter: 0.05
  old densities: 5
  Damping of long wavelength oscillations: 50 

Hamiltonian:
  XC and Coulomb potentials evaluated on a 120*120*120 grid
  Using the PBE Exchange-Correlation functional
  External potential:
    NoExternalPotential
 

XC parameters: PBE with 2 nearest neighbor stencil

Memory estimate:
  Process memory now: 332.28 MiB
  Calculator: 17.78 MiB
    Density: 3.76 MiB
      Arrays: 1.80 MiB
      Localized functions: 1.24 MiB
      Mixer: 0.72 MiB
    Hamiltonian: 1.36 MiB
      Arrays: 1.34 MiB
      XC: 0.00 MiB
      Poisson: 0.00 MiB
      vbar: 0.03 MiB
    Wavefunctions: 12.65 MiB
      Arrays psit_nG: 4.58 MiB
      Eigensolver: 3.73 MiB
      Projections: 0.00 MiB
      Projectors: 0.06 MiB
      PW-descriptor: 4.28 MiB

Total number of cores used: 32
Domain decomposition: 4 x 4 x 2

Number of atoms: 2
Number of atomic orbitals: 8
Number of bands in calculation: 8
Number of valence electrons: 12
Bands to converge: occupied

... initialized

Initializing position-dependent things.

Density initialized from atomic densities
Creating initial wave functions:
  8 bands from LCAO basis set

        .----------------------------.  
       /|                            |  
      / |                            |  
     /  |                            |  
    /   |                            |  
   /    |                            |  
  /     |                            |  
 *      |                            |  
 |      |                            |  
 |      |                            |  
 |      |          O                 |  
 |      |                            |  
 |      |          O                 |  
 |      |                            |  
 |      |                            |  
 |      .----------------------------.  
 |     /                            /   
 |    /                            /    
 |   /                            /     
 |  /                            /      
 | /                            /       
 |/                            /        
 *----------------------------*         

Positions:
   0 O      6.000000    6.000000    6.622978    ( 0.0000,  0.0000,  1.0000)
   1 O      6.000000    6.000000    5.377022    ( 0.0000,  0.0000,  1.0000)

Unit cell:
           periodic     x           y           z      points  spacing
  1. axis:    no    12.000000    0.000000    0.000000    60     0.2000
  2. axis:    no     0.000000   12.000000    0.000000    60     0.2000
  3. axis:    no     0.000000    0.000000   12.000000    60     0.2000

  Lengths:  12.000000  12.000000  12.000000
  Angles:   90.000000  90.000000  90.000000

Effective grid spacing dv^(1/3) = 0.2000

     iter     time        total  log10-change:  magmom
                         energy  eigst   dens
iter:   1 20:08:22    -8.515915                  +1.9998
iter:   2 20:08:23    -8.830776  -1.32  -1.22    +1.9999
iter:   3 20:08:23    -8.732968  -1.60  -1.25    +2.0000
iter:   4 20:08:24    -8.731904  -2.01  -1.63    +2.0000
iter:   5 20:08:25    -8.734359c -2.46  -2.00    +2.0000
iter:   6 20:08:26    -8.727972  -2.77  -2.03    +2.0000
iter:   7 20:08:27    -8.728657  -3.73  -2.76    +2.0000
iter:   8 20:08:27    -8.727723c -3.70  -2.54    +2.0000
iter:   9 20:08:28    -8.727734c -5.00  -3.44    +2.0000
iter:  10 20:08:29    -8.727724c -6.17  -3.34    +2.0000
iter:  11 20:08:30    -8.727717c -6.42  -3.42    +2.0000
iter:  12 20:08:30    -8.727726c -6.45  -3.46    +2.0000
iter:  13 20:08:31    -8.727713c -5.56  -3.40    +2.0000
iter:  14 20:08:32    -8.727714c -6.23  -3.52    +2.0000
iter:  15 20:08:33    -8.727715c -6.33  -3.63    +2.0000
iter:  16 20:08:34    -8.727714c -7.55c -3.70    +2.0000
iter:  17 20:08:34    -8.727714c -6.06  -3.73    +2.0000
iter:  18 20:08:35    -8.727713c -6.70  -3.93    +2.0000
iter:  19 20:08:36    -8.727713c -8.23c -4.25c   +2.0000

Converged after 19 iterations.

Dipole moment: (-0.000000, -0.000000, -0.000000) |e|*Ang

Total magnetic moment: (0.000000, 0.000000, 2.000000)
Local magnetic moments:
   0 O  ( 0.000000,  0.000000,  0.717343)
   1 O  ( 0.000000,  0.000000,  0.717343)

Energy contributions relative to reference atoms: (reference = -4081.704602)

Kinetic:         +1.568787
Potential:       -2.028447
External:        +0.000000
XC:              -8.238147
Entropy (-ST):   +0.000000
Local:           -0.029906
--------------------------
Free energy:     -8.727713
Extrapolated:    -8.727713

Spin contamination: 0.027239 electrons
                   Up                     Down
 Band  Eigenvalues  Occupancy  Eigenvalues  Occupancy
    0    -32.20488    1.00000    -30.98106    1.00000
    1    -20.87450    1.00000    -19.07361    1.00000
    2    -13.40149    1.00000    -12.50258    1.00000
    3    -13.09835    1.00000    -11.25050    1.00000
    4    -13.09835    1.00000    -11.25050    1.00000
    5     -6.96435    1.00000     -4.68043    0.00000
    6     -6.96435    1.00000     -4.68043    0.00000
    7      0.52827    0.00000      0.72440    0.00000

Fermi level: -5.82239

Gap: 2.284 eV
Transition (v -> c):
  (s=0, k=0, n=6, [0.00, 0.00, 0.00]) -> (s=1, k=0, n=5, [0.00, 0.00, 0.00])
Timing:                              incl.     excl.
-----------------------------------------------------------
Hamiltonian:                         0.177     0.006   0.0% |
 Atomic:                             0.000     0.000   0.0% |
  XC Correction:                     0.000     0.000   0.0% |
 Calculate atomic Hamiltonians:      0.003     0.003   0.0% |
 Communicate:                        0.066     0.066   0.4% |
 Initialize Hamiltonian:             0.000     0.000   0.0% |
 Poisson:                            0.000     0.000   0.0% |
 XC 3D grid:                         0.101     0.101   0.7% |
LCAO initialization:                 0.071     0.022   0.1% |
 LCAO eigensolver:                   0.002     0.000   0.0% |
  Calculate projections:             0.000     0.000   0.0% |
  DenseAtomicCorrection:             0.000     0.000   0.0% |
  Distribute overlap matrix:         0.001     0.001   0.0% |
  Orbital Layouts:                   0.000     0.000   0.0% |
  Potential matrix:                  0.000     0.000   0.0% |
 LCAO to grid:                       0.042     0.042   0.3% |
 Set positions (LCAO WFS):           0.004     0.001   0.0% |
  Basic WFS set positions:           0.001     0.001   0.0% |
  Basis functions set positions:     0.000     0.000   0.0% |
  P tci:                             0.000     0.000   0.0% |
  ST tci:                            0.000     0.000   0.0% |
  mktci:                             0.001     0.001   0.0% |
PWDescriptor:                        0.022     0.022   0.1% |
SCF-cycle:                          14.309     0.057   0.4% |
 Davidson:                           1.858     0.122   0.8% |
  Apply H:                           0.381     0.378   2.5% ||
   HMM T:                            0.003     0.003   0.0% |
  Subspace diag:                     0.469     0.003   0.0% |
   calc_h_matrix:                    0.450     0.009   0.1% |
    Apply H:                         0.441     0.438   2.9% ||
     HMM T:                          0.003     0.003   0.0% |
   diagonalize:                      0.012     0.012   0.1% |
   rotate_psi:                       0.004     0.004   0.0% |
  calc. matrices:                    0.864     0.070   0.5% |
   Apply H:                          0.794     0.789   5.3% |-|
    HMM T:                           0.005     0.005   0.0% |
  diagonalize:                       0.017     0.017   0.1% |
  rotate_psi:                        0.005     0.005   0.0% |
 Density:                            9.181     0.000   0.0% |
  Atomic density matrices:           0.024     0.024   0.2% |
  Mix:                               1.145     1.145   7.6% |--|
  Multipole moments:                 0.002     0.002   0.0% |
  Pseudo density:                    8.009     0.327   2.2% ||
   Symmetrize density:               7.682     7.682  51.2% |-------------------|
 Hamiltonian:                        3.212     0.095   0.6% |
  Atomic:                            0.004     0.004   0.0% |
   XC Correction:                    0.000     0.000   0.0% |
  Calculate atomic Hamiltonians:     0.063     0.063   0.4% |
  Communicate:                       1.176     1.176   7.8% |--|
  Poisson:                           0.010     0.010   0.1% |
  XC 3D grid:                        1.863     1.863  12.4% |----|
 Orthonormalize:                     0.001     0.000   0.0% |
  calc_s_matrix:                     0.000     0.000   0.0% |
  inverse-cholesky:                  0.000     0.000   0.0% |
  projections:                       0.000     0.000   0.0% |
  rotate_psi_s:                      0.000     0.000   0.0% |
Set symmetry:                        0.003     0.003   0.0% |
Other:                               0.409     0.409   2.7% ||
-----------------------------------------------------------
Total:                                        14.992 100.0%

Memory usage: 340.63 MiB
Date: Fri Feb 24 20:08:36 2023
