
  ___ ___ ___ _ _ _  
 |   |   |_  | | | | 
 | | | | | . | | | | 
 |__ |  _|___|_____|  22.8.0
 |___|_|             

User:   jesfra@vera22-4
Date:   Fri Feb 24 17:28:04 2023
Arch:   x86_64
Pid:    1718614
CWD:    /cephyr/users/jesfra/Vera/A4
Python: 3.10.4
gpaw:   /apps/Arch/software/GPAW/22.8.0-foss-2022a/lib/python3.10/site-packages/gpaw
_gpaw:  /apps/Arch/software/GPAW/22.8.0-foss-2022a/lib/python3.10/site-packages/
        _gpaw.cpython-310-x86_64-linux-gnu.so
ase:    /apps/Arch/software/ASE/3.22.1-foss-2022a/lib/python3.10/site-packages/ase (version 3.22.1)
numpy:  /apps/Arch/software/SciPy-bundle/2022.05-foss-2022a/lib/python3.10/site-packages/numpy (version 1.22.3)
scipy:  /apps/Arch/software/SciPy-bundle/2022.05-foss-2022a/lib/python3.10/site-packages/scipy (version 1.8.1)
libxc:  5.2.3
units:  Angstrom and eV
cores: 32
OpenMP: False
OMP_NUM_THREADS: 1

Input parameters:
  kpts: [4 4 1]
  mode: {ecut: 450.00000000000006,
         name: pw}
  xc: PBE

System changes: positions, numbers, cell, pbc, initial_charges, initial_magmoms 

Initialize ...

species:
  Au:
    name: Gold
    id: b12133f335f6ca0d89c4b1ccaa844e9a
    Z: 79.0
    valence: 11
    core: 68
    charge: 0.0
    file: /apps/Common/software/GPAW-setups/0.9.20000/Au.PBE.gz
    compensation charges: {type: gauss,
                           rc: 0.42,
                           lmax: 2}
    cutoffs: {filter: 2.33,
              core: 2.81}
    valence states:
      #              energy  rcut
      - 6s(1.00)    -5.728   1.323
      - 6p(0.00)    -0.775   1.323
      - 5d(10.00)    -6.891   1.323
      -  s          21.484   1.323
      -  p          26.436   1.323
      -  d          20.321   1.323
  
    # Using partial waves for Au as LCAO basis

Reference energy: -13948153.319951  # eV

Spin-paired calculation

Convergence criteria:
 Maximum [total energy] change in last 3 cyles: 0.0005 eV / electron
 Maximum integral of absolute [dens]ity change: 0.0001 electrons / valence electron
 Maximum integral of absolute [eigenst]ate change: 4e-08 eV^2 / valence electron
 Maximum number of scf [iter]ations: 333
 (Square brackets indicate name in SCF output, whereas a 'c' in
 the SCF output indicates the quantity has converged.)

Symmetries present (total): 6

  ( 1  0  0)  ( 1 -1  0)  ( 0  1  0)  ( 0 -1  0)  (-1  1  0)  (-1  0  0)
  ( 0  1  0)  ( 0 -1  0)  ( 1  0  0)  ( 1 -1  0)  (-1  0  0)  (-1  1  0)
  ( 0  0  1)  ( 0  0  1)  ( 0  0  1)  ( 0  0  1)  ( 0  0  1)  ( 0  0  1)
Note: your k-points are not as symmetric as your crystal!

16 k-points: 4 x 4 x 1 Monkhorst-Pack grid
6 k-points in the irreducible part of the Brillouin zone
       k-points in crystal coordinates                weights
   0:     0.12500000   -0.12500000    0.00000000          2/16
   1:     0.12500000    0.12500000    0.00000000          2/16
   2:     0.37500000   -0.37500000    0.00000000          2/16
   3:     0.37500000   -0.12500000    0.00000000          4/16
   4:     0.37500000    0.12500000    0.00000000          4/16
   5:     0.37500000    0.37500000    0.00000000          2/16

Wave functions: Plane wave expansion
  Cutoff energy: 450.000 eV
  Number of coefficients (min, max): 24805, 24847
  Pulay-stress correction: 0.000000 eV/Ang^3 (de/decut=0.000000)
  Using FFTW library
  ScaLapack parameters: grid=1x1, blocksize=None
  Wavefunction extrapolation:
    Improved wavefunction reuse through dual PAW basis 

Occupation numbers: Fermi-Dirac:
  width: 0.1000  # eV
 

Eigensolver
   Davidson(niter=2) 

Densities:
  Coarse grid: 45*45*84 grid
  Fine grid: 90*90*168 grid
  Total Charge: 0.000000 

Density mixing:
  Method: separate
  Backend: pulay
  Linear mixing parameter: 0.05
  old densities: 5
  Damping of long wavelength oscillations: 50 

Hamiltonian:
  XC and Coulomb potentials evaluated on a 90*90*168 grid
  Using the PBE Exchange-Correlation functional
  External potential:
    NoExternalPotential
 

XC parameters: PBE with 2 nearest neighbor stencil

Memory estimate:
  Process memory now: 299.58 MiB
  Calculator: 298.17 MiB
    Density: 4.60 MiB
      Arrays: 2.12 MiB
      Localized functions: 1.64 MiB
      Mixer: 0.85 MiB
    Hamiltonian: 1.42 MiB
      Arrays: 1.38 MiB
      XC: 0.00 MiB
      Poisson: 0.00 MiB
      vbar: 0.03 MiB
    Wavefunctions: 292.15 MiB
      Arrays psit_nG: 208.15 MiB
      Eigensolver: 76.39 MiB
      Projections: 0.25 MiB
      Projectors: 0.53 MiB
      PW-descriptor: 6.83 MiB

Total number of cores used: 32
Parallelization over k-points: 2
Domain decomposition: 2 x 2 x 4

Number of atoms: 27
Number of atomic orbitals: 243
Number of bands in calculation: 183
Number of valence electrons: 297
Bands to converge: occupied

... initialized

Initializing position-dependent things.

Density initialized from atomic densities
Creating initial wave functions:
  183 bands from LCAO basis set

                                              
                                              
                                              
                                              
                                              
                  Au     Au     Au            
                                              
            Au     AAu    AAu    Au           
       Au     Au     AAu    Au                
                                              
        Au     Au     AAu    Au     Au        
                                              
                 Au     Au     Au             
                                              
           Au      Au     Au                  
                                              
                                              
                                              
                                              

Positions:
   0 Au     1.477500    0.853035    6.000000    ( 0.0000,  0.0000,  0.0000)
   1 Au     4.432499    0.853035    6.000000    ( 0.0000,  0.0000,  0.0000)
   2 Au     7.387498    0.853035    6.000000    ( 0.0000,  0.0000,  0.0000)
   3 Au     2.954999    3.412139    6.000000    ( 0.0000,  0.0000,  0.0000)
   4 Au     5.909998    3.412139    6.000000    ( 0.0000,  0.0000,  0.0000)
   5 Au     8.864998    3.412139    6.000000    ( 0.0000,  0.0000,  0.0000)
   6 Au     4.432499    5.971244    6.000000    ( 0.0000,  0.0000,  0.0000)
   7 Au     7.387498    5.971244    6.000000    ( 0.0000,  0.0000,  0.0000)
   8 Au    10.342497    5.971244    6.000000    ( 0.0000,  0.0000,  0.0000)
   9 Au    -0.000000    1.706070    8.412747    ( 0.0000,  0.0000,  0.0000)
  10 Au     2.954999    1.706070    8.412747    ( 0.0000,  0.0000,  0.0000)
  11 Au     5.909998    1.706070    8.412747    ( 0.0000,  0.0000,  0.0000)
  12 Au     1.477500    4.265174    8.412747    ( 0.0000,  0.0000,  0.0000)
  13 Au     4.432499    4.265174    8.412747    ( 0.0000,  0.0000,  0.0000)
  14 Au     7.387498    4.265174    8.412747    ( 0.0000,  0.0000,  0.0000)
  15 Au     2.954999    6.824278    8.412747    ( 0.0000,  0.0000,  0.0000)
  16 Au     5.909998    6.824278    8.412747    ( 0.0000,  0.0000,  0.0000)
  17 Au     8.864998    6.824278    8.412747    ( 0.0000,  0.0000,  0.0000)
  18 Au     0.000000    0.000000   10.825494    ( 0.0000,  0.0000,  0.0000)
  19 Au     2.954999    0.000000   10.825494    ( 0.0000,  0.0000,  0.0000)
  20 Au     5.909998    0.000000   10.825494    ( 0.0000,  0.0000,  0.0000)
  21 Au     1.477500    2.559104   10.825494    ( 0.0000,  0.0000,  0.0000)
  22 Au     4.432499    2.559104   10.825494    ( 0.0000,  0.0000,  0.0000)
  23 Au     7.387498    2.559104   10.825494    ( 0.0000,  0.0000,  0.0000)
  24 Au     2.954999    5.118209   10.825494    ( 0.0000,  0.0000,  0.0000)
  25 Au     5.909998    5.118209   10.825494    ( 0.0000,  0.0000,  0.0000)
  26 Au     8.864998    5.118209   10.825494    ( 0.0000,  0.0000,  0.0000)

Unit cell:
           periodic     x           y           z      points  spacing
  1. axis:    yes    8.864998    0.000000    0.000000    45     0.1706
  2. axis:    yes    4.432499    7.677313    0.000000    45     0.1706
  3. axis:    no     0.000000    0.000000   16.825494    84     0.2003

  Lengths:   8.864998   8.864998  16.825494
  Angles:   90.000000  90.000000  60.000000

Effective grid spacing dv^(1/3) = 0.1888

     iter     time        total  log10-change:
                         energy  eigst   dens
iter:   1 17:28:18   -85.462363
iter:   2 17:28:21   -84.102137  -1.83  -1.35
iter:   3 17:28:24   -79.181384  -1.30  -1.37
iter:   4 17:28:28   -78.972704  -2.67  -1.78
iter:   5 17:28:31   -78.926518  -2.28  -1.86
iter:   6 17:28:35   -79.437359  -2.44  -2.12
iter:   7 17:28:38   -78.902104  -2.05  -2.01
iter:   8 17:28:41   -78.886874  -3.53  -2.48
iter:   9 17:28:44   -78.842412c -3.01  -2.49
iter:  10 17:28:48   -78.824707c -3.69  -2.81
iter:  11 17:28:51   -78.824721c -5.07  -3.39
iter:  12 17:28:54   -78.824680c -5.73  -3.39
iter:  13 17:28:57   -78.824402c -5.52  -3.39
iter:  14 17:29:01   -78.825357c -4.79  -3.56
iter:  15 17:29:04   -78.824833c -5.90  -3.59
iter:  16 17:29:07   -78.824440c -5.96  -3.92
iter:  17 17:29:10   -78.824338c -5.96  -3.99
iter:  18 17:29:14   -78.824262c -6.81  -4.07c
iter:  19 17:29:17   -78.824240c -6.73  -4.20c
iter:  20 17:29:20   -78.824234c -6.46  -4.45c
iter:  21 17:29:23   -78.824219c -7.25  -4.33c
iter:  22 17:29:27   -78.824226c -7.90c -4.64c

Converged after 22 iterations.

Dipole moment: (-0.120827, -0.069759, -0.000000) |e|*Ang

Energy contributions relative to reference atoms: (reference = -13948153.319951)

Kinetic:       -306.653574
Potential:     +247.702255
External:        +0.000000
XC:             -22.720379
Entropy (-ST):   -0.275317
Local:           +2.985131
--------------------------
Free energy:    -78.961884
Extrapolated:   -78.824226

Showing only first 2 kpts
 Kpt  Band  Eigenvalues  Occupancy
  0   146     -0.38526    1.99999
  0   147     -0.38526    1.99999
  0   148      0.31401    1.98655
  0   149      0.31401    1.98655

  1   146     -0.56300    2.00000
  1   147     -0.37459    1.99999
  1   148     -0.37459    1.99999
  1   149     -0.19044    1.99991


Fermi level: 0.81352

No gap

Forces in eV/Ang:
  0 Au   -0.00000   -0.00000   -0.04055
  1 Au   -0.00000    0.00000   -0.04055
  2 Au    0.00000   -0.00000   -0.04055
  3 Au    0.00000   -0.00000   -0.04055
  4 Au   -0.00000   -0.00000   -0.04055
  5 Au    0.00000   -0.00000   -0.04055
  6 Au    0.00000    0.00000   -0.04055
  7 Au   -0.00000    0.00000   -0.04055
  8 Au    0.00000    0.00000   -0.04055
  9 Au   -0.00000   -0.00001    0.00000
 10 Au    0.00000    0.00000   -0.00000
 11 Au   -0.00000    0.00000   -0.00000
 12 Au    0.00000   -0.00000   -0.00000
 13 Au   -0.00000   -0.00000   -0.00000
 14 Au   -0.00000   -0.00000   -0.00000
 15 Au    0.00001    0.00000    0.00000
 16 Au   -0.00001    0.00000    0.00000
 17 Au    0.00000    0.00000   -0.00000
 18 Au   -0.00000    0.00000    0.04054
 19 Au   -0.00000    0.00000    0.04055
 20 Au    0.00000    0.00000    0.04055
 21 Au   -0.00000   -0.00000    0.04055
 22 Au   -0.00000    0.00000    0.04055
 23 Au    0.00000   -0.00000    0.04055
 24 Au    0.00000    0.00000    0.04055
 25 Au   -0.00000    0.00000    0.04055
 26 Au   -0.00000    0.00000    0.04055

System changes: positions 

Initializing position-dependent things.

Density initialized from wave functions
                                              
                                              
                                              
                                              
                                              
                  Au     Au     Au            
                                              
            Au     AAu    AAu    Au           
       Au     Au     AAu    Au                
                                              
        Au     Au     AAu    Au     Au        
                                              
                 Au     Au     Au             
                                              
           Au      Au     Au                  
                                              
                                              
                                              
                                              

Positions:
   0 Au     1.477500    0.853035    5.999421    ( 0.0000,  0.0000,  0.0000)
   1 Au     4.432499    0.853035    5.999421    ( 0.0000,  0.0000,  0.0000)
   2 Au     7.387498    0.853035    5.999421    ( 0.0000,  0.0000,  0.0000)
   3 Au     2.954999    3.412139    5.999421    ( 0.0000,  0.0000,  0.0000)
   4 Au     5.909998    3.412139    5.999421    ( 0.0000,  0.0000,  0.0000)
   5 Au     8.864998    3.412139    5.999421    ( 0.0000,  0.0000,  0.0000)
   6 Au     4.432499    5.971244    5.999421    ( 0.0000,  0.0000,  0.0000)
   7 Au     7.387498    5.971244    5.999421    ( 0.0000,  0.0000,  0.0000)
   8 Au    10.342497    5.971244    5.999421    ( 0.0000,  0.0000,  0.0000)
   9 Au    -0.000000    1.706069    8.412747    ( 0.0000,  0.0000,  0.0000)
  10 Au     2.954999    1.706070    8.412747    ( 0.0000,  0.0000,  0.0000)
  11 Au     5.909998    1.706070    8.412747    ( 0.0000,  0.0000,  0.0000)
  12 Au     1.477500    4.265174    8.412747    ( 0.0000,  0.0000,  0.0000)
  13 Au     4.432499    4.265174    8.412747    ( 0.0000,  0.0000,  0.0000)
  14 Au     7.387498    4.265174    8.412747    ( 0.0000,  0.0000,  0.0000)
  15 Au     2.954999    6.824278    8.412747    ( 0.0000,  0.0000,  0.0000)
  16 Au     5.909998    6.824278    8.412747    ( 0.0000,  0.0000,  0.0000)
  17 Au     8.864998    6.824278    8.412747    ( 0.0000,  0.0000,  0.0000)
  18 Au    -0.000000    0.000000   10.826073    ( 0.0000,  0.0000,  0.0000)
  19 Au     2.954999    0.000000   10.826073    ( 0.0000,  0.0000,  0.0000)
  20 Au     5.909999    0.000000   10.826073    ( 0.0000,  0.0000,  0.0000)
  21 Au     1.477500    2.559104   10.826073    ( 0.0000,  0.0000,  0.0000)
  22 Au     4.432499    2.559104   10.826073    ( 0.0000,  0.0000,  0.0000)
  23 Au     7.387498    2.559104   10.826073    ( 0.0000,  0.0000,  0.0000)
  24 Au     2.954999    5.118209   10.826073    ( 0.0000,  0.0000,  0.0000)
  25 Au     5.909998    5.118209   10.826073    ( 0.0000,  0.0000,  0.0000)
  26 Au     8.864998    5.118209   10.826073    ( 0.0000,  0.0000,  0.0000)

Unit cell:
           periodic     x           y           z      points  spacing
  1. axis:    yes    8.864998    0.000000    0.000000    45     0.1706
  2. axis:    yes    4.432499    7.677313    0.000000    45     0.1706
  3. axis:    no     0.000000    0.000000   16.825494    84     0.2003

  Lengths:   8.864998   8.864998  16.825494
  Angles:   90.000000  90.000000  60.000000

Effective grid spacing dv^(1/3) = 0.1888

     iter     time        total  log10-change:
                         energy  eigst   dens
iter:   1 17:29:32   -78.825156  -5.21
iter:   2 17:29:35   -78.824931  -6.91  -3.67
iter:   3 17:29:38   -78.824671c -5.80  -3.83
iter:   4 17:29:41   -78.824677c -7.27  -4.59c
iter:   5 17:29:44   -78.824683c -8.28c -4.59c

Converged after 5 iterations.

Dipole moment: (-0.120698, -0.069685, 0.000000) |e|*Ang

Energy contributions relative to reference atoms: (reference = -13948153.319951)

Kinetic:       -307.725167
Potential:     +248.704891
External:        +0.000000
XC:             -22.666907
Entropy (-ST):   -0.275220
Local:           +3.000111
--------------------------
Free energy:    -78.962293
Extrapolated:   -78.824683

Showing only first 2 kpts
 Kpt  Band  Eigenvalues  Occupancy
  0   146     -0.38577    1.99999
  0   147     -0.38577    1.99999
  0   148      0.31360    1.98652
  0   149      0.31360    1.98652

  1   146     -0.56373    2.00000
  1   147     -0.37517    1.99999
  1   148     -0.37517    1.99999
  1   149     -0.19102    1.99991


Fermi level: 0.81292

No gap

Forces in eV/Ang:
  0 Au    0.00000    0.00000   -0.03601
  1 Au   -0.00000   -0.00000   -0.03601
  2 Au   -0.00000    0.00000   -0.03601
  3 Au   -0.00000    0.00000   -0.03601
  4 Au    0.00000    0.00000   -0.03601
  5 Au    0.00000    0.00000   -0.03600
  6 Au    0.00000   -0.00000   -0.03601
  7 Au    0.00000   -0.00000   -0.03600
  8 Au   -0.00000   -0.00000   -0.03600
  9 Au    0.00000    0.00000   -0.00000
 10 Au   -0.00000   -0.00000    0.00000
 11 Au    0.00000   -0.00000    0.00000
 12 Au   -0.00000    0.00000    0.00000
 13 Au    0.00000    0.00000    0.00000
 14 Au    0.00000    0.00000    0.00000
 15 Au   -0.00000   -0.00000   -0.00000
 16 Au    0.00000   -0.00000   -0.00000
 17 Au    0.00000   -0.00000    0.00000
 18 Au   -0.00000    0.00000    0.03601
 19 Au    0.00000   -0.00000    0.03600
 20 Au   -0.00000   -0.00000    0.03600
 21 Au   -0.00000    0.00000    0.03600
 22 Au    0.00000    0.00000    0.03601
 23 Au    0.00000    0.00000    0.03600
 24 Au   -0.00000   -0.00000    0.03600
 25 Au    0.00000   -0.00000    0.03600
 26 Au   -0.00000    0.00000    0.03600

System changes: positions 

Initializing position-dependent things.

Density initialized from wave functions
                                              
                                              
                                              
                                              
                                              
                  Au     Au     Au            
                                              
            Au     AAu    AAu    Au           
       Au     Au     AAu    Au                
                                              
        Au     Au     AAu    Au     Au        
                                              
                 Au     Au     Au             
                                              
           Au      Au     Au                  
                                              
                                              
                                              
                                              

Positions:
   0 Au     1.477500    0.853035    5.994830    ( 0.0000,  0.0000,  0.0000)
   1 Au     4.432499    0.853035    5.994830    ( 0.0000,  0.0000,  0.0000)
   2 Au     7.387498    0.853035    5.994830    ( 0.0000,  0.0000,  0.0000)
   3 Au     2.954999    3.412139    5.994830    ( 0.0000,  0.0000,  0.0000)
   4 Au     5.909999    3.412139    5.994830    ( 0.0000,  0.0000,  0.0000)
   5 Au     8.864998    3.412139    5.994830    ( 0.0000,  0.0000,  0.0000)
   6 Au     4.432499    5.971244    5.994830    ( 0.0000,  0.0000,  0.0000)
   7 Au     7.387498    5.971244    5.994830    ( 0.0000,  0.0000,  0.0000)
   8 Au    10.342497    5.971244    5.994830    ( 0.0000,  0.0000,  0.0000)
   9 Au    -0.000000    1.706070    8.412747    ( 0.0000,  0.0000,  0.0000)
  10 Au     2.954999    1.706070    8.412747    ( 0.0000,  0.0000,  0.0000)
  11 Au     5.909999    1.706070    8.412747    ( 0.0000,  0.0000,  0.0000)
  12 Au     1.477499    4.265174    8.412747    ( 0.0000,  0.0000,  0.0000)
  13 Au     4.432499    4.265174    8.412747    ( 0.0000,  0.0000,  0.0000)
  14 Au     7.387498    4.265174    8.412747    ( 0.0000,  0.0000,  0.0000)
  15 Au     2.954999    6.824278    8.412747    ( 0.0000,  0.0000,  0.0000)
  16 Au     5.909999    6.824278    8.412747    ( 0.0000,  0.0000,  0.0000)
  17 Au     8.864998    6.824278    8.412747    ( 0.0000,  0.0000,  0.0000)
  18 Au    -0.000000    0.000000   10.830664    ( 0.0000,  0.0000,  0.0000)
  19 Au     2.954999   -0.000000   10.830664    ( 0.0000,  0.0000,  0.0000)
  20 Au     5.909998   -0.000000   10.830664    ( 0.0000,  0.0000,  0.0000)
  21 Au     1.477500    2.559105   10.830664    ( 0.0000,  0.0000,  0.0000)
  22 Au     4.432499    2.559104   10.830664    ( 0.0000,  0.0000,  0.0000)
  23 Au     7.387498    2.559105   10.830664    ( 0.0000,  0.0000,  0.0000)
  24 Au     2.954999    5.118209   10.830664    ( 0.0000,  0.0000,  0.0000)
  25 Au     5.909999    5.118209   10.830664    ( 0.0000,  0.0000,  0.0000)
  26 Au     8.864998    5.118209   10.830663    ( 0.0000,  0.0000,  0.0000)

Unit cell:
           periodic     x           y           z      points  spacing
  1. axis:    yes    8.864998    0.000000    0.000000    45     0.1706
  2. axis:    yes    4.432499    7.677313    0.000000    45     0.1706
  3. axis:    no     0.000000    0.000000   16.825494    84     0.2003

  Lengths:   8.864998   8.864998  16.825494
  Angles:   90.000000  90.000000  60.000000

Effective grid spacing dv^(1/3) = 0.1888

     iter     time        total  log10-change:
                         energy  eigst   dens
iter:   1 17:29:49   -78.844713  -3.47
iter:   2 17:29:52   -78.835365  -5.09  -2.78
iter:   3 17:29:55   -78.827669c -4.06  -2.93
iter:   4 17:29:58   -78.827688c -5.50  -3.72
iter:   5 17:30:02   -78.827671c -6.55  -3.70
iter:   6 17:30:05   -78.827872c -5.46  -3.76
iter:   7 17:30:08   -78.827914c -6.43  -4.09c
iter:   8 17:30:11   -78.827663c -5.86  -4.09c
iter:   9 17:30:15   -78.827658c -6.94  -4.44c
iter:  10 17:30:18   -78.827684c -7.40  -4.64c
iter:  11 17:30:21   -78.827653c -6.85  -4.69c
iter:  12 17:30:24   -78.827679c -7.28  -4.67c
iter:  13 17:30:28   -78.827679c -8.51c -5.12c

Converged after 13 iterations.

Dipole moment: (-0.118588, -0.068467, 0.000000) |e|*Ang

Energy contributions relative to reference atoms: (reference = -13948153.319951)

Kinetic:       -310.353609
Potential:     +250.980226
External:        +0.000000
XC:             -22.311285
Entropy (-ST):   -0.274440
Local:           +2.994208
--------------------------
Free energy:    -78.964899
Extrapolated:   -78.827679

Showing only first 2 kpts
 Kpt  Band  Eigenvalues  Occupancy
  0   146     -0.38812    1.99999
  0   147     -0.38812    1.99999
  0   148      0.31239    1.98627
  0   149      0.31239    1.98627

  1   146     -0.56701    2.00000
  1   147     -0.37777    1.99999
  1   148     -0.37777    1.99999
  1   149     -0.19334    1.99991


Fermi level: 0.80982

No gap

Forces in eV/Ang:
  0 Au   -0.00000   -0.00000   -0.02404
  1 Au    0.00000   -0.00000   -0.02404
  2 Au    0.00000   -0.00000   -0.02404
  3 Au   -0.00000    0.00000   -0.02404
  4 Au    0.00000    0.00000   -0.02404
  5 Au   -0.00000    0.00001   -0.02404
  6 Au   -0.00000    0.00000   -0.02404
  7 Au    0.00001   -0.00000   -0.02404
  8 Au   -0.00001   -0.00000   -0.02404
  9 Au   -0.00000    0.00000    0.00000
 10 Au   -0.00000   -0.00000    0.00000
 11 Au    0.00000   -0.00000    0.00000
 12 Au   -0.00000    0.00000   -0.00000
 13 Au    0.00000    0.00000    0.00000
 14 Au    0.00000    0.00000   -0.00000
 15 Au   -0.00000   -0.00000    0.00000
 16 Au    0.00000   -0.00000    0.00000
 17 Au    0.00000   -0.00000   -0.00000
 18 Au   -0.00000    0.00000    0.02404
 19 Au    0.00000   -0.00000    0.02404
 20 Au   -0.00000   -0.00000    0.02404
 21 Au   -0.00000    0.00000    0.02404
 22 Au   -0.00000    0.00000    0.02403
 23 Au    0.00000    0.00000    0.02404
 24 Au   -0.00000    0.00000    0.02404
 25 Au    0.00000    0.00000    0.02404
 26 Au   -0.00000    0.00000    0.02404

System changes: positions 

Initializing position-dependent things.

Density initialized from wave functions
                                              
                                              
                                              
                                              
                                              
                  Au     Au     Au            
                                              
            Au     AAu    AAu    Au           
       Au     Au     AAu    Au                
                                              
        Au     Au     AAu    Au     Au        
                                              
                 Au     Au     Au             
                                              
           Au      Au     Au                  
                                              
                                              
                                              
                                              

Positions:
   0 Au     1.477500    0.853035    5.985606    ( 0.0000,  0.0000,  0.0000)
   1 Au     4.432499    0.853034    5.985606    ( 0.0000,  0.0000,  0.0000)
   2 Au     7.387498    0.853035    5.985606    ( 0.0000,  0.0000,  0.0000)
   3 Au     2.954999    3.412140    5.985606    ( 0.0000,  0.0000,  0.0000)
   4 Au     5.909999    3.412140    5.985606    ( 0.0000,  0.0000,  0.0000)
   5 Au     8.864998    3.412140    5.985608    ( 0.0000,  0.0000,  0.0000)
   6 Au     4.432499    5.971243    5.985606    ( 0.0000,  0.0000,  0.0000)
   7 Au     7.387498    5.971243    5.985608    ( 0.0000,  0.0000,  0.0000)
   8 Au    10.342497    5.971243    5.985608    ( 0.0000,  0.0000,  0.0000)
   9 Au    -0.000000    1.706071    8.412746    ( 0.0000,  0.0000,  0.0000)
  10 Au     2.954999    1.706069    8.412747    ( 0.0000,  0.0000,  0.0000)
  11 Au     5.909999    1.706069    8.412747    ( 0.0000,  0.0000,  0.0000)
  12 Au     1.477499    4.265175    8.412747    ( 0.0000,  0.0000,  0.0000)
  13 Au     4.432499    4.265175    8.412747    ( 0.0000,  0.0000,  0.0000)
  14 Au     7.387499    4.265175    8.412747    ( 0.0000,  0.0000,  0.0000)
  15 Au     2.954998    6.824278    8.412746    ( 0.0000,  0.0000,  0.0000)
  16 Au     5.909999    6.824278    8.412746    ( 0.0000,  0.0000,  0.0000)
  17 Au     8.864998    6.824277    8.412747    ( 0.0000,  0.0000,  0.0000)
  18 Au    -0.000000    0.000000   10.839887    ( 0.0000,  0.0000,  0.0000)
  19 Au     2.955000   -0.000001   10.839887    ( 0.0000,  0.0000,  0.0000)
  20 Au     5.909998   -0.000001   10.839887    ( 0.0000,  0.0000,  0.0000)
  21 Au     1.477499    2.559105   10.839887    ( 0.0000,  0.0000,  0.0000)
  22 Au     4.432499    2.559104   10.839888    ( 0.0000,  0.0000,  0.0000)
  23 Au     7.387498    2.559105   10.839887    ( 0.0000,  0.0000,  0.0000)
  24 Au     2.954999    5.118209   10.839887    ( 0.0000,  0.0000,  0.0000)
  25 Au     5.909999    5.118209   10.839887    ( 0.0000,  0.0000,  0.0000)
  26 Au     8.864998    5.118209   10.839885    ( 0.0000,  0.0000,  0.0000)

Unit cell:
           periodic     x           y           z      points  spacing
  1. axis:    yes    8.864998    0.000000    0.000000    45     0.1706
  2. axis:    yes    4.432499    7.677313    0.000000    45     0.1706
  3. axis:    no     0.000000    0.000000   16.825494    84     0.2003

  Lengths:   8.864998   8.864998  16.825494
  Angles:   90.000000  90.000000  60.000000

Effective grid spacing dv^(1/3) = 0.1888

     iter     time        total  log10-change:
                         energy  eigst   dens
iter:   1 17:30:32   -78.894687  -2.87
iter:   2 17:30:35   -78.858956  -4.50  -2.48
iter:   3 17:30:39   -78.830717c -3.46  -2.63
iter:   4 17:30:42   -78.830692c -4.91  -3.41
iter:   5 17:30:45   -78.830571c -5.93  -3.40
iter:   6 17:30:48   -78.830887c -4.87  -3.45
iter:   7 17:30:52   -78.831008c -5.84  -3.81
iter:   8 17:30:55   -78.830332c -5.23  -3.82
iter:   9 17:30:58   -78.830342c -6.74  -4.18c
iter:  10 17:31:01   -78.830402c -6.60  -4.35c
iter:  11 17:31:04   -78.830348c -6.29  -4.39c
iter:  12 17:31:08   -78.830378c -6.93  -4.43c
iter:  13 17:31:11   -78.830380c -7.97c -4.80c

Converged after 13 iterations.

Dipole moment: (-0.115200, -0.066511, 0.000000) |e|*Ang

Energy contributions relative to reference atoms: (reference = -13948153.319951)

Kinetic:       -314.899350
Potential:     +254.856251
External:        +0.000000
XC:             -21.632478
Entropy (-ST):   -0.272751
Local:           +2.981573
--------------------------
Free energy:    -78.966755
Extrapolated:   -78.830380

Showing only first 2 kpts
 Kpt  Band  Eigenvalues  Occupancy
  0   146     -0.39338    1.99999
  0   147     -0.39338    1.99999
  0   148      0.30937    1.98571
  0   149      0.30937    1.98571

  1   146     -0.57431    2.00000
  1   147     -0.38354    1.99999
  1   148     -0.38354    1.99999
  1   149     -0.19859    1.99991


Fermi level: 0.80281

No gap

Forces in eV/Ang:
  0 Au   -0.00000   -0.00000    0.00315
  1 Au    0.00000    0.00001    0.00315
  2 Au    0.00000   -0.00000    0.00315
  3 Au    0.00001   -0.00000    0.00315
  4 Au   -0.00001   -0.00000    0.00315
  5 Au   -0.00000   -0.00000    0.00314
  6 Au   -0.00000    0.00000    0.00315
  7 Au   -0.00000    0.00000    0.00314
  8 Au    0.00000    0.00000    0.00314
  9 Au   -0.00000   -0.00001    0.00000
 10 Au    0.00001    0.00000   -0.00000
 11 Au   -0.00001    0.00000   -0.00000
 12 Au    0.00001   -0.00001   -0.00000
 13 Au    0.00000   -0.00001   -0.00000
 14 Au   -0.00001   -0.00001   -0.00000
 15 Au    0.00001    0.00000    0.00000
 16 Au   -0.00001    0.00000    0.00000
 17 Au   -0.00000    0.00002   -0.00000
 18 Au    0.00000    0.00000   -0.00315
 19 Au   -0.00000    0.00000   -0.00315
 20 Au    0.00000    0.00000   -0.00315
 21 Au    0.00000   -0.00000   -0.00315
 22 Au    0.00000    0.00000   -0.00315
 23 Au   -0.00000   -0.00000   -0.00315
 24 Au    0.00000   -0.00000   -0.00315
 25 Au   -0.00000   -0.00000   -0.00315
 26 Au    0.00000    0.00000   -0.00313

Writing to Au.gpw (mode='')


  ___ ___ ___ _ _ _  
 |   |   |_  | | | | 
 | | | | | . | | | | 
 |__ |  _|___|_____|  22.8.0
 |___|_|             

User:   jesfra@vera22-4
Date:   Fri Feb 24 17:31:12 2023
Arch:   x86_64
Pid:    1718614
CWD:    /cephyr/users/jesfra/Vera/A4
Python: 3.10.4
gpaw:   /apps/Arch/software/GPAW/22.8.0-foss-2022a/lib/python3.10/site-packages/gpaw
_gpaw:  /apps/Arch/software/GPAW/22.8.0-foss-2022a/lib/python3.10/site-packages/
        _gpaw.cpython-310-x86_64-linux-gnu.so
ase:    /apps/Arch/software/ASE/3.22.1-foss-2022a/lib/python3.10/site-packages/ase (version 3.22.1)
numpy:  /apps/Arch/software/SciPy-bundle/2022.05-foss-2022a/lib/python3.10/site-packages/numpy (version 1.22.3)
scipy:  /apps/Arch/software/SciPy-bundle/2022.05-foss-2022a/lib/python3.10/site-packages/scipy (version 1.8.1)
libxc:  5.2.3
units:  Angstrom and eV
cores: 32
OpenMP: False
OMP_NUM_THREADS: 1

Input parameters:
  kpts: [4 4 1]
  mode: {ecut: 450.00000000000006,
         name: pw}
  xc: PBE

Timing:                                      incl.     excl.
-------------------------------------------------------------------
Density initialized from wave functions:     0.909     0.716   0.4% |
 Symmetrize density:                         0.193     0.193   0.1% |
Forces:                                      2.585     2.585   1.4% ||
Hamiltonian:                                 0.855     0.019   0.0% |
 Atomic:                                     0.001     0.001   0.0% |
  XC Correction:                             0.000     0.000   0.0% |
 Calculate atomic Hamiltonians:              0.222     0.222   0.1% |
 Communicate:                                0.385     0.385   0.2% |
 Initialize Hamiltonian:                     0.000     0.000   0.0% |
 Poisson:                                    0.003     0.003   0.0% |
 XC 3D grid:                                 0.225     0.225   0.1% |
LCAO initialization:                         6.514     0.062   0.0% |
 LCAO eigensolver:                           0.431     0.001   0.0% |
  Calculate projections:                     0.000     0.000   0.0% |
  DenseAtomicCorrection:                     0.000     0.000   0.0% |
  Distribute overlap matrix:                 0.311     0.311   0.2% |
  Orbital Layouts:                           0.097     0.097   0.1% |
  Potential matrix:                          0.015     0.015   0.0% |
  Sum over cells:                            0.006     0.006   0.0% |
 LCAO to grid:                               5.745     5.745   3.1% ||
 Set positions (LCAO WFS):                   0.276     0.223   0.1% |
  Basic WFS set positions:                   0.005     0.005   0.0% |
  Basis functions set positions:             0.000     0.000   0.0% |
  P tci:                                     0.001     0.001   0.0% |
  ST tci:                                    0.021     0.021   0.0% |
  mktci:                                     0.027     0.027   0.0% |
PWDescriptor:                                0.336     0.336   0.2% |
Redistribute:                                0.003     0.003   0.0% |
SCF-cycle:                                 174.093     0.685   0.4% |
 Davidson:                                 148.229    25.669  13.6% |----|
  Apply H:                                  14.989    14.616   7.8% |--|
   HMM T:                                    0.373     0.373   0.2% |
  Subspace diag:                            25.545     0.023   0.0% |
   calc_h_matrix:                           19.505     2.112   1.1% |
    Apply H:                                17.393    17.017   9.0% |---|
     HMM T:                                  0.376     0.376   0.2% |
   diagonalize:                              2.710     2.710   1.4% ||
   rotate_psi:                               3.307     3.307   1.8% ||
  calc. matrices:                           44.472    14.592   7.8% |--|
   Apply H:                                 29.879    29.146  15.5% |-----|
    HMM T:                                   0.733     0.733   0.4% |
  diagonalize:                              30.742    30.742  16.3% |------|
  rotate_psi:                                6.813     6.813   3.6% ||
 Density:                                   15.328     0.002   0.0% |
  Atomic density matrices:                   0.204     0.204   0.1% |
  Mix:                                       3.612     3.612   1.9% ||
  Multipole moments:                         0.010     0.010   0.0% |
  Pseudo density:                           11.500     8.352   4.4% |-|
   Symmetrize density:                       3.148     3.148   1.7% ||
 Hamiltonian:                                9.147     0.221   0.1% |
  Atomic:                                    0.011     0.011   0.0% |
   XC Correction:                            0.000     0.000   0.0% |
  Calculate atomic Hamiltonians:             2.285     2.285   1.2% |
  Communicate:                               3.799     3.799   2.0% ||
  Poisson:                                   0.031     0.031   0.0% |
  XC 3D grid:                                2.799     2.799   1.5% ||
 Orthonormalize:                             0.704     0.002   0.0% |
  calc_s_matrix:                             0.075     0.075   0.0% |
  inverse-cholesky:                          0.084     0.084   0.0% |
  projections:                               0.414     0.414   0.2% |
  rotate_psi_s:                              0.130     0.130   0.1% |
Set symmetry:                                0.003     0.003   0.0% |
Other:                                       2.840     2.840   1.5% ||
-------------------------------------------------------------------
Total:                                               188.139 100.0%

Memory usage: 400.71 MiB
Date: Fri Feb 24 17:31:12 2023
System changes: positions, numbers, cell, pbc, initial_charges, initial_magmoms 

Initialize ...

species:
  Pt:
    name: Platinum
    id: 5ed695806aff0c961dba1a84acd7f4b2
    Z: 78.0
    valence: 16
    core: 62
    charge: 0.0
    file: /apps/Common/software/GPAW-setups/0.9.20000/Pt.PBE.gz
    compensation charges: {type: gauss,
                           rc: 0.41,
                           lmax: 2}
    cutoffs: {filter: 2.26,
              core: 2.26}
    valence states:
      #              energy  rcut
      - 6s(1.00)    -5.628   1.307
      - 5p(6.00)   -56.051   1.371
      - 6p(0.00)    -0.845   1.371
      - 5d(9.00)    -6.153   1.307
      -  s          21.583   1.307
      -  d          21.058   1.307
  
    # Using partial waves for Pt as LCAO basis

Reference energy: -13510134.794721  # eV

Spin-paired calculation

Convergence criteria:
 Maximum [total energy] change in last 3 cyles: 0.0005 eV / electron
 Maximum integral of absolute [dens]ity change: 0.0001 electrons / valence electron
 Maximum integral of absolute [eigenst]ate change: 4e-08 eV^2 / valence electron
 Maximum number of scf [iter]ations: 333
 (Square brackets indicate name in SCF output, whereas a 'c' in
 the SCF output indicates the quantity has converged.)

Symmetries present (total): 6

  ( 1  0  0)  ( 1 -1  0)  ( 0  1  0)  ( 0 -1  0)  (-1  1  0)  (-1  0  0)
  ( 0  1  0)  ( 0 -1  0)  ( 1  0  0)  ( 1 -1  0)  (-1  0  0)  (-1  1  0)
  ( 0  0  1)  ( 0  0  1)  ( 0  0  1)  ( 0  0  1)  ( 0  0  1)  ( 0  0  1)
Note: your k-points are not as symmetric as your crystal!

16 k-points: 4 x 4 x 1 Monkhorst-Pack grid
6 k-points in the irreducible part of the Brillouin zone
       k-points in crystal coordinates                weights
   0:     0.12500000   -0.12500000    0.00000000          2/16
   1:     0.12500000    0.12500000    0.00000000          2/16
   2:     0.37500000   -0.37500000    0.00000000          2/16
   3:     0.37500000   -0.12500000    0.00000000          4/16
   4:     0.37500000    0.12500000    0.00000000          4/16
   5:     0.37500000    0.37500000    0.00000000          2/16

Wave functions: Plane wave expansion
  Cutoff energy: 450.000 eV
  Number of coefficients (min, max): 22050, 22099
  Pulay-stress correction: 0.000000 eV/Ang^3 (de/decut=0.000000)
  Using FFTW library
  ScaLapack parameters: grid=1x1, blocksize=None
  Wavefunction extrapolation:
    Improved wavefunction reuse through dual PAW basis 

Occupation numbers: Fermi-Dirac:
  width: 0.1000  # eV
 

Eigensolver
   Davidson(niter=2) 

Densities:
  Coarse grid: 42*42*84 grid
  Fine grid: 84*84*168 grid
  Total Charge: 0.000000 

Density mixing:
  Method: separate
  Backend: pulay
  Linear mixing parameter: 0.05
  old densities: 5
  Damping of long wavelength oscillations: 50 

Hamiltonian:
  XC and Coulomb potentials evaluated on a 84*84*168 grid
  Using the PBE Exchange-Correlation functional
  External potential:
    NoExternalPotential
 

XC parameters: PBE with 2 nearest neighbor stencil

Memory estimate:
  Process memory now: 400.71 MiB
  Calculator: 380.44 MiB
    Density: 4.00 MiB
      Arrays: 1.84 MiB
      Localized functions: 1.46 MiB
      Mixer: 0.71 MiB
    Hamiltonian: 1.23 MiB
      Arrays: 1.20 MiB
      XC: 0.00 MiB
      Poisson: 0.00 MiB
      vbar: 0.03 MiB
    Wavefunctions: 375.21 MiB
      Arrays psit_nG: 267.07 MiB
      Eigensolver: 101.35 MiB
      Projections: 0.37 MiB
      Projectors: 0.47 MiB
      PW-descriptor: 5.95 MiB

Total number of cores used: 32
Parallelization over k-points: 2
Domain decomposition: 2 x 2 x 4

Number of atoms: 27
Number of atomic orbitals: 324
Number of bands in calculation: 264
Number of valence electrons: 432
Bands to converge: occupied

... initialized

Initializing position-dependent things.

Density initialized from atomic densities
Creating initial wave functions:
  264 bands from LCAO basis set

                                            
                                            
                                            
                                            
                                            
                 Pt     Pt     Pt           
            Pt     Pt     Pt                
       Pt     Pt  Pt Pt  Pt    Pt           
             Pt     Pt     Pt               
        Pt     Pt     Pt                    
                     Pt     Pt    Pt        
                Pt     Pt     Pt            
                                            
           Pt     Pt     Pt                 
                                            
                                            
                                            
                                            

Positions:
   0 Pt     1.403253    0.810169    6.000000    ( 0.0000,  0.0000,  0.0000)
   1 Pt     4.209760    0.810169    6.000000    ( 0.0000,  0.0000,  0.0000)
   2 Pt     7.016267    0.810169    6.000000    ( 0.0000,  0.0000,  0.0000)
   3 Pt     2.806507    3.240675    6.000000    ( 0.0000,  0.0000,  0.0000)
   4 Pt     5.613014    3.240675    6.000000    ( 0.0000,  0.0000,  0.0000)
   5 Pt     8.419520    3.240675    6.000000    ( 0.0000,  0.0000,  0.0000)
   6 Pt     4.209760    5.671181    6.000000    ( 0.0000,  0.0000,  0.0000)
   7 Pt     7.016267    5.671181    6.000000    ( 0.0000,  0.0000,  0.0000)
   8 Pt     9.822774    5.671181    6.000000    ( 0.0000,  0.0000,  0.0000)
   9 Pt    -0.000000    1.620337    8.291503    ( 0.0000,  0.0000,  0.0000)
  10 Pt     2.806507    1.620337    8.291503    ( 0.0000,  0.0000,  0.0000)
  11 Pt     5.613014    1.620337    8.291503    ( 0.0000,  0.0000,  0.0000)
  12 Pt     1.403253    4.050844    8.291503    ( 0.0000,  0.0000,  0.0000)
  13 Pt     4.209760    4.050844    8.291503    ( 0.0000,  0.0000,  0.0000)
  14 Pt     7.016267    4.050844    8.291503    ( 0.0000,  0.0000,  0.0000)
  15 Pt     2.806507    6.481350    8.291503    ( 0.0000,  0.0000,  0.0000)
  16 Pt     5.613014    6.481350    8.291503    ( 0.0000,  0.0000,  0.0000)
  17 Pt     8.419520    6.481350    8.291503    ( 0.0000,  0.0000,  0.0000)
  18 Pt     0.000000    0.000000   10.583006    ( 0.0000,  0.0000,  0.0000)
  19 Pt     2.806507    0.000000   10.583006    ( 0.0000,  0.0000,  0.0000)
  20 Pt     5.613014    0.000000   10.583006    ( 0.0000,  0.0000,  0.0000)
  21 Pt     1.403253    2.430506   10.583006    ( 0.0000,  0.0000,  0.0000)
  22 Pt     4.209760    2.430506   10.583006    ( 0.0000,  0.0000,  0.0000)
  23 Pt     7.016267    2.430506   10.583006    ( 0.0000,  0.0000,  0.0000)
  24 Pt     2.806507    4.861012   10.583006    ( 0.0000,  0.0000,  0.0000)
  25 Pt     5.613014    4.861012   10.583006    ( 0.0000,  0.0000,  0.0000)
  26 Pt     8.419520    4.861012   10.583006    ( 0.0000,  0.0000,  0.0000)

Unit cell:
           periodic     x           y           z      points  spacing
  1. axis:    yes    8.419520    0.000000    0.000000    42     0.1736
  2. axis:    yes    4.209760    7.291519    0.000000    42     0.1736
  3. axis:    no     0.000000    0.000000   16.583006    84     0.1974

  Lengths:   8.419520   8.419520  16.583006
  Angles:   90.000000  90.000000  60.000000

Effective grid spacing dv^(1/3) = 0.1901

     iter     time        total  log10-change:
                         energy  eigst   dens
iter:   1 17:31:34  -172.676304
iter:   2 17:31:39  -170.438570  -1.23  -1.42
iter:   3 17:31:44  -166.048440  -1.78  -1.46
iter:   4 17:31:49  -162.144798  -1.36  -1.59
iter:   5 17:31:54  -162.490579  -2.18  -2.00
iter:   6 17:31:59  -162.043721  -2.72  -2.08
iter:   7 17:32:04  -161.870984  -3.11  -2.23
iter:   8 17:32:09  -161.862264c -3.80  -2.31
iter:   9 17:32:14  -161.830875c -2.87  -2.34
iter:  10 17:32:18  -161.840773c -3.32  -2.91
iter:  11 17:32:23  -161.829681c -4.16  -2.95
iter:  12 17:32:28  -161.831433c -4.72  -3.15
iter:  13 17:32:33  -161.831763c -4.94  -3.08
iter:  14 17:32:38  -161.832937c -4.73  -3.09
iter:  15 17:32:43  -161.831295c -4.76  -3.05
iter:  16 17:32:48  -161.828866c -5.13  -3.14
iter:  17 17:32:53  -161.829371c -6.40  -3.22
iter:  18 17:32:58  -161.833239c -4.73  -3.26
iter:  19 17:33:03  -161.833198c -5.60  -3.83
iter:  20 17:33:08  -161.833073c -6.00  -3.89
iter:  21 17:33:13  -161.832879c -5.84  -3.94
iter:  22 17:33:18  -161.832719c -6.28  -3.95
iter:  23 17:33:23  -161.832539c -6.47  -4.06c
iter:  24 17:33:28  -161.832173c -6.84  -4.25c
iter:  25 17:33:33  -161.832025c -7.23  -4.33c
iter:  26 17:33:38  -161.832031c -7.65c -4.53c

Converged after 26 iterations.

Dipole moment: (-0.177505, -0.102483, 0.000203) |e|*Ang

Energy contributions relative to reference atoms: (reference = -13510134.794721)

Kinetic:       -311.561866
Potential:     +239.850467
External:        +0.000000
XC:             -74.559541
Entropy (-ST):   -1.819320
Local:          -14.651431
--------------------------
Free energy:   -162.741691
Extrapolated:  -161.832031

Showing only first 2 kpts
 Kpt  Band  Eigenvalues  Occupancy
  0   214      1.27172    1.31538
  0   215      1.27172    1.31537
  0   216      1.28961    1.23267
  0   217      1.33055    1.03234

  1   214      1.11164    1.80995
  1   215      1.11270    1.80812
  1   216      1.16900    1.68586
  1   217      1.16900    1.68585


Fermi level: 1.33702

No gap

Forces in eV/Ang:
  0 Pt    0.00001    0.00000   -0.07835
  1 Pt   -0.00000   -0.00001   -0.07835
  2 Pt   -0.00001    0.00000   -0.07835
  3 Pt   -0.00001    0.00000   -0.07835
  4 Pt    0.00001    0.00000   -0.07835
  5 Pt   -0.00000    0.00000   -0.07835
  6 Pt    0.00000   -0.00001   -0.07835
  7 Pt    0.00000   -0.00000   -0.07835
  8 Pt   -0.00000   -0.00000   -0.07835
  9 Pt    0.00000    0.00001   -0.00068
 10 Pt   -0.00000   -0.00000   -0.00069
 11 Pt    0.00000   -0.00000   -0.00069
 12 Pt   -0.00000    0.00000   -0.00068
 13 Pt   -0.00000    0.00001   -0.00069
 14 Pt    0.00000    0.00000   -0.00068
 15 Pt   -0.00001   -0.00000   -0.00068
 16 Pt    0.00001   -0.00000   -0.00068
 17 Pt   -0.00000   -0.00000   -0.00068
 18 Pt    0.00000    0.00000    0.07766
 19 Pt    0.00000   -0.00001    0.07766
 20 Pt   -0.00000   -0.00001    0.07766
 21 Pt   -0.00000    0.00000    0.07766
 22 Pt    0.00000   -0.00000    0.07767
 23 Pt    0.00000    0.00000    0.07766
 24 Pt   -0.00001    0.00000    0.07766
 25 Pt    0.00001    0.00000    0.07766
 26 Pt   -0.00000   -0.00000    0.07767

System changes: positions 

Initializing position-dependent things.

Density initialized from wave functions
                                            
                                            
                                            
                                            
                                            
                 Pt     Pt     Pt           
            Pt     Pt     Pt                
       Pt     Pt  Pt Pt  Pt    Pt           
             Pt     Pt     Pt               
        Pt     Pt     Pt                    
                     Pt     Pt    Pt        
                Pt     Pt     Pt            
                                            
           Pt     Pt     Pt                 
                                            
                                            
                                            
                                            

Positions:
   0 Pt     1.403254    0.810169    5.998881    ( 0.0000,  0.0000,  0.0000)
   1 Pt     4.209760    0.810169    5.998881    ( 0.0000,  0.0000,  0.0000)
   2 Pt     7.016267    0.810169    5.998881    ( 0.0000,  0.0000,  0.0000)
   3 Pt     2.806507    3.240675    5.998881    ( 0.0000,  0.0000,  0.0000)
   4 Pt     5.613014    3.240675    5.998881    ( 0.0000,  0.0000,  0.0000)
   5 Pt     8.419520    3.240675    5.998881    ( 0.0000,  0.0000,  0.0000)
   6 Pt     4.209760    5.671181    5.998881    ( 0.0000,  0.0000,  0.0000)
   7 Pt     7.016267    5.671181    5.998881    ( 0.0000,  0.0000,  0.0000)
   8 Pt     9.822774    5.671181    5.998881    ( 0.0000,  0.0000,  0.0000)
   9 Pt    -0.000000    1.620338    8.291493    ( 0.0000,  0.0000,  0.0000)
  10 Pt     2.806507    1.620337    8.291493    ( 0.0000,  0.0000,  0.0000)
  11 Pt     5.613014    1.620337    8.291493    ( 0.0000,  0.0000,  0.0000)
  12 Pt     1.403253    4.050844    8.291493    ( 0.0000,  0.0000,  0.0000)
  13 Pt     4.209760    4.050844    8.291493    ( 0.0000,  0.0000,  0.0000)
  14 Pt     7.016267    4.050844    8.291493    ( 0.0000,  0.0000,  0.0000)
  15 Pt     2.806507    6.481350    8.291493    ( 0.0000,  0.0000,  0.0000)
  16 Pt     5.613014    6.481350    8.291493    ( 0.0000,  0.0000,  0.0000)
  17 Pt     8.419520    6.481350    8.291493    ( 0.0000,  0.0000,  0.0000)
  18 Pt     0.000000    0.000000   10.584116    ( 0.0000,  0.0000,  0.0000)
  19 Pt     2.806507   -0.000000   10.584116    ( 0.0000,  0.0000,  0.0000)
  20 Pt     5.613014   -0.000000   10.584116    ( 0.0000,  0.0000,  0.0000)
  21 Pt     1.403253    2.430506   10.584116    ( 0.0000,  0.0000,  0.0000)
  22 Pt     4.209760    2.430506   10.584116    ( 0.0000,  0.0000,  0.0000)
  23 Pt     7.016267    2.430506   10.584116    ( 0.0000,  0.0000,  0.0000)
  24 Pt     2.806507    4.861012   10.584116    ( 0.0000,  0.0000,  0.0000)
  25 Pt     5.613014    4.861012   10.584116    ( 0.0000,  0.0000,  0.0000)
  26 Pt     8.419520    4.861012   10.584116    ( 0.0000,  0.0000,  0.0000)

Unit cell:
           periodic     x           y           z      points  spacing
  1. axis:    yes    8.419520    0.000000    0.000000    42     0.1736
  2. axis:    yes    4.209760    7.291519    0.000000    42     0.1736
  3. axis:    no     0.000000    0.000000   16.583006    84     0.1974

  Lengths:   8.419520   8.419520  16.583006
  Angles:   90.000000  90.000000  60.000000

Effective grid spacing dv^(1/3) = 0.1901

     iter     time        total  log10-change:
                         energy  eigst   dens
iter:   1 17:33:45  -161.833455  -4.59
iter:   2 17:33:50  -161.836557  -4.82  -3.26
iter:   3 17:33:55  -161.834256c -5.42  -3.35
iter:   4 17:34:00  -161.833933c -6.48  -3.68
iter:   5 17:34:05  -161.833850c -6.53  -4.10c
iter:   6 17:34:10  -161.833972c -6.75  -4.29c
iter:   7 17:34:15  -161.833723c -7.62c -4.46c

Converged after 7 iterations.

Dipole moment: (-0.176804, -0.102078, -0.000115) |e|*Ang

Energy contributions relative to reference atoms: (reference = -13510134.794721)

Kinetic:       -315.252964
Potential:     +243.258154
External:        +0.000000
XC:             -74.306676
Entropy (-ST):   -1.818775
Local:          -14.622849
--------------------------
Free energy:   -162.743110
Extrapolated:  -161.833723

Showing only first 2 kpts
 Kpt  Band  Eigenvalues  Occupancy
  0   214      1.27089    1.31408
  0   215      1.27089    1.31407
  0   216      1.28837    1.23329
  0   217      1.32868    1.03610

  1   214      1.11029    1.81036
  1   215      1.11260    1.80636
  1   216      1.16847    1.68430
  1   217      1.16847    1.68429


Fermi level: 1.33590

No gap

Forces in eV/Ang:
  0 Pt    0.00000    0.00000   -0.06200
  1 Pt    0.00000    0.00000   -0.06199
  2 Pt   -0.00000    0.00000   -0.06200
  3 Pt    0.00000   -0.00000   -0.06199
  4 Pt   -0.00000   -0.00000   -0.06199
  5 Pt    0.00000   -0.00001   -0.06199
  6 Pt   -0.00000   -0.00000   -0.06200
  7 Pt   -0.00001    0.00001   -0.06199
  8 Pt    0.00001    0.00001   -0.06199
  9 Pt    0.00000    0.00001    0.00059
 10 Pt   -0.00001   -0.00000    0.00060
 11 Pt    0.00001   -0.00000    0.00060
 12 Pt    0.00000   -0.00000    0.00059
 13 Pt   -0.00000    0.00001    0.00060
 14 Pt   -0.00000   -0.00000    0.00059
 15 Pt   -0.00001   -0.00001    0.00059
 16 Pt    0.00001   -0.00001    0.00059
 17 Pt    0.00000    0.00000    0.00059
 18 Pt   -0.00000   -0.00000    0.06212
 19 Pt   -0.00000    0.00001    0.06215
 20 Pt    0.00000    0.00001    0.06215
 21 Pt    0.00000   -0.00001    0.06215
 22 Pt   -0.00000    0.00000    0.06213
 23 Pt   -0.00000   -0.00001    0.06215
 24 Pt    0.00001   -0.00000    0.06215
 25 Pt   -0.00001   -0.00000    0.06215
 26 Pt    0.00000   -0.00000    0.06210

System changes: positions 

Initializing position-dependent things.

Density initialized from wave functions
                                            
                                            
                                            
                                            
                                            
                 Pt     Pt     Pt           
            Pt     Pt     Pt                
       Pt     Pt  Pt Pt  Pt    Pt           
             Pt     Pt     Pt               
        Pt     Pt     Pt                    
                     Pt     Pt    Pt        
                Pt     Pt     Pt            
                                            
           Pt     Pt     Pt                 
                                            
                                            
                                            
                                            

Positions:
   0 Pt     1.403254    0.810169    5.994544    ( 0.0000,  0.0000,  0.0000)
   1 Pt     4.209760    0.810169    5.994544    ( 0.0000,  0.0000,  0.0000)
   2 Pt     7.016267    0.810169    5.994544    ( 0.0000,  0.0000,  0.0000)
   3 Pt     2.806507    3.240675    5.994544    ( 0.0000,  0.0000,  0.0000)
   4 Pt     5.613014    3.240675    5.994544    ( 0.0000,  0.0000,  0.0000)
   5 Pt     8.419520    3.240674    5.994545    ( 0.0000,  0.0000,  0.0000)
   6 Pt     4.209760    5.671181    5.994544    ( 0.0000,  0.0000,  0.0000)
   7 Pt     7.016266    5.671182    5.994545    ( 0.0000,  0.0000,  0.0000)
   8 Pt     9.822775    5.671182    5.994545    ( 0.0000,  0.0000,  0.0000)
   9 Pt    -0.000000    1.620338    8.291535    ( 0.0000,  0.0000,  0.0000)
  10 Pt     2.806506    1.620337    8.291535    ( 0.0000,  0.0000,  0.0000)
  11 Pt     5.613014    1.620337    8.291535    ( 0.0000,  0.0000,  0.0000)
  12 Pt     1.403253    4.050844    8.291535    ( 0.0000,  0.0000,  0.0000)
  13 Pt     4.209760    4.050844    8.291535    ( 0.0000,  0.0000,  0.0000)
  14 Pt     7.016267    4.050844    8.291535    ( 0.0000,  0.0000,  0.0000)
  15 Pt     2.806506    6.481349    8.291535    ( 0.0000,  0.0000,  0.0000)
  16 Pt     5.613014    6.481349    8.291535    ( 0.0000,  0.0000,  0.0000)
  17 Pt     8.419520    6.481350    8.291535    ( 0.0000,  0.0000,  0.0000)
  18 Pt     0.000000   -0.000000   10.588461    ( 0.0000,  0.0000,  0.0000)
  19 Pt     2.806507    0.000000   10.588463    ( 0.0000,  0.0000,  0.0000)
  20 Pt     5.613014    0.000000   10.588463    ( 0.0000,  0.0000,  0.0000)
  21 Pt     1.403254    2.430506   10.588463    ( 0.0000,  0.0000,  0.0000)
  22 Pt     4.209760    2.430506   10.588461    ( 0.0000,  0.0000,  0.0000)
  23 Pt     7.016267    2.430506   10.588463    ( 0.0000,  0.0000,  0.0000)
  24 Pt     2.806507    4.861012   10.588463    ( 0.0000,  0.0000,  0.0000)
  25 Pt     5.613013    4.861012   10.588463    ( 0.0000,  0.0000,  0.0000)
  26 Pt     8.419520    4.861012   10.588459    ( 0.0000,  0.0000,  0.0000)

Unit cell:
           periodic     x           y           z      points  spacing
  1. axis:    yes    8.419520    0.000000    0.000000    42     0.1736
  2. axis:    yes    4.209760    7.291519    0.000000    42     0.1736
  3. axis:    no     0.000000    0.000000   16.583006    84     0.1974

  Lengths:   8.419520   8.419520  16.583006
  Angles:   90.000000  90.000000  60.000000

Effective grid spacing dv^(1/3) = 0.1901

     iter     time        total  log10-change:
                         energy  eigst   dens
iter:   1 17:34:21  -161.871033  -3.38
iter:   2 17:34:26  -161.840841  -3.93  -2.69
iter:   3 17:34:31  -161.844332c -4.69  -3.21
iter:   4 17:34:36  -161.840462c -5.40  -3.18
iter:   5 17:34:41  -161.839528c -5.34  -3.47
iter:   6 17:34:46  -161.840333c -5.32  -3.68
iter:   7 17:34:51  -161.839251c -6.33  -3.83
iter:   8 17:34:56  -161.838652c -6.42  -4.15c
iter:   9 17:35:01  -161.838825c -7.22  -4.38c
iter:  10 17:35:06  -161.838806c -7.31  -4.45c
iter:  11 17:35:11  -161.838876c -7.55c -4.54c

Converged after 11 iterations.

Dipole moment: (-0.173172, -0.099981, 0.000113) |e|*Ang

Energy contributions relative to reference atoms: (reference = -13510134.794721)

Kinetic:       -318.770402
Potential:     +246.265234
External:        +0.000000
XC:             -73.809617
Entropy (-ST):   -1.817114
Local:          -14.615534
--------------------------
Free energy:   -162.747433
Extrapolated:  -161.838876

Showing only first 2 kpts
 Kpt  Band  Eigenvalues  Occupancy
  0   214      1.26961    1.30776
  0   215      1.26961    1.30774
  0   216      1.28504    1.23637
  0   217      1.32320    1.05005

  1   214      1.10671    1.81189
  1   215      1.11389    1.79930
  1   216      1.16755    1.67960
  1   217      1.16755    1.67958


Fermi level: 1.33322

No gap

Forces in eV/Ang:
  0 Pt    0.00001    0.00001   -0.03971
  1 Pt    0.00000    0.00001   -0.03966
  2 Pt   -0.00001    0.00001   -0.03971
  3 Pt    0.00001   -0.00000   -0.03966
  4 Pt   -0.00001   -0.00000   -0.03966
  5 Pt    0.00000   -0.00007   -0.03960
  6 Pt    0.00000   -0.00001   -0.03971
  7 Pt   -0.00006    0.00003   -0.03960
  8 Pt    0.00006    0.00003   -0.03960
  9 Pt    0.00000    0.00009   -0.00037
 10 Pt   -0.00006   -0.00003   -0.00037
 11 Pt    0.00006   -0.00003   -0.00037
 12 Pt    0.00002   -0.00001   -0.00037
 13 Pt   -0.00000    0.00007   -0.00037
 14 Pt   -0.00002   -0.00001   -0.00037
 15 Pt   -0.00008   -0.00005   -0.00037
 16 Pt    0.00008   -0.00005   -0.00037
 17 Pt    0.00000    0.00003   -0.00037
 18 Pt   -0.00000    0.00000    0.03914
 19 Pt   -0.00002    0.00004    0.03934
 20 Pt    0.00002    0.00004    0.03934
 21 Pt    0.00002   -0.00003    0.03934
 22 Pt    0.00000   -0.00000    0.03919
 23 Pt   -0.00002   -0.00003    0.03934
 24 Pt    0.00004   -0.00000    0.03934
 25 Pt   -0.00004   -0.00000    0.03934
 26 Pt   -0.00000   -0.00000    0.03900

System changes: positions 

Initializing position-dependent things.

Density initialized from wave functions
                                            
                                            
                                            
                                            
                                            
                 Pt     Pt     Pt           
            Pt     Pt     Pt                
       Pt     Pt  Pt Pt  Pt    Pt           
             Pt     Pt     Pt               
        Pt     Pt     Pt                    
                     Pt     Pt    Pt        
                Pt     Pt     Pt            
                                            
           Pt     Pt     Pt                 
                                            
                                            
                                            
                                            

Positions:
   0 Pt     1.403254    0.810169    5.986964    ( 0.0000,  0.0000,  0.0000)
   1 Pt     4.209760    0.810169    5.986967    ( 0.0000,  0.0000,  0.0000)
   2 Pt     7.016266    0.810169    5.986964    ( 0.0000,  0.0000,  0.0000)
   3 Pt     2.806507    3.240675    5.986967    ( 0.0000,  0.0000,  0.0000)
   4 Pt     5.613013    3.240675    5.986967    ( 0.0000,  0.0000,  0.0000)
   5 Pt     8.419520    3.240670    5.986971    ( 0.0000,  0.0000,  0.0000)
   6 Pt     4.209760    5.671180    5.986964    ( 0.0000,  0.0000,  0.0000)
   7 Pt     7.016263    5.671183    5.986971    ( 0.0000,  0.0000,  0.0000)
   8 Pt     9.822778    5.671183    5.986971    ( 0.0000,  0.0000,  0.0000)
   9 Pt    -0.000000    1.620343    8.291578    ( 0.0000,  0.0000,  0.0000)
  10 Pt     2.806503    1.620335    8.291578    ( 0.0000,  0.0000,  0.0000)
  11 Pt     5.613017    1.620335    8.291578    ( 0.0000,  0.0000,  0.0000)
  12 Pt     1.403255    4.050843    8.291578    ( 0.0000,  0.0000,  0.0000)
  13 Pt     4.209760    4.050848    8.291578    ( 0.0000,  0.0000,  0.0000)
  14 Pt     7.016266    4.050843    8.291578    ( 0.0000,  0.0000,  0.0000)
  15 Pt     2.806502    6.481347    8.291578    ( 0.0000,  0.0000,  0.0000)
  16 Pt     5.613019    6.481347    8.291578    ( 0.0000,  0.0000,  0.0000)
  17 Pt     8.419520    6.481351    8.291578    ( 0.0000,  0.0000,  0.0000)
  18 Pt     0.000000   -0.000000   10.596030    ( 0.0000,  0.0000,  0.0000)
  19 Pt     2.806506    0.000002   10.596044    ( 0.0000,  0.0000,  0.0000)
  20 Pt     5.613015    0.000002   10.596044    ( 0.0000,  0.0000,  0.0000)
  21 Pt     1.403255    2.430504   10.596044    ( 0.0000,  0.0000,  0.0000)
  22 Pt     4.209760    2.430506   10.596033    ( 0.0000,  0.0000,  0.0000)
  23 Pt     7.016266    2.430504   10.596044    ( 0.0000,  0.0000,  0.0000)
  24 Pt     2.806509    4.861012   10.596044    ( 0.0000,  0.0000,  0.0000)
  25 Pt     5.613011    4.861012   10.596044    ( 0.0000,  0.0000,  0.0000)
  26 Pt     8.419520    4.861012   10.596021    ( 0.0000,  0.0000,  0.0000)

Unit cell:
           periodic     x           y           z      points  spacing
  1. axis:    yes    8.419520    0.000000    0.000000    42     0.1736
  2. axis:    yes    4.209760    7.291519    0.000000    42     0.1736
  3. axis:    no     0.000000    0.000000   16.583006    84     0.1974

  Lengths:   8.419520   8.419520  16.583006
  Angles:   90.000000  90.000000  60.000000

Effective grid spacing dv^(1/3) = 0.1901

     iter     time        total  log10-change:
                         energy  eigst   dens
iter:   1 17:35:17  -161.948647  -2.92
iter:   2 17:35:22  -161.848566  -3.51  -2.47
iter:   3 17:35:27  -161.851354c -4.36  -3.01
iter:   4 17:35:31  -161.847594c -5.11  -3.07
iter:   5 17:35:36  -161.844912c -4.82  -3.21
iter:   6 17:35:41  -161.846193c -4.87  -3.44
iter:   7 17:35:46  -161.844069c -5.83  -3.60
iter:   8 17:35:51  -161.843142c -6.02  -3.95
iter:   9 17:35:56  -161.843489c -6.68  -4.14c
iter:  10 17:36:01  -161.843400c -6.91  -4.34c
iter:  11 17:36:06  -161.843497c -7.12  -4.28c
iter:  12 17:36:11  -161.843495c -7.74c -4.71c

Converged after 12 iterations.

Dipole moment: (-0.168099, -0.097052, -0.000045) |e|*Ang

Energy contributions relative to reference atoms: (reference = -13510134.794721)

Kinetic:       -325.073351
Potential:     +251.666001
External:        +0.000000
XC:             -72.923815
Entropy (-ST):   -1.813790
Local:          -14.605435
--------------------------
Free energy:   -162.750390
Extrapolated:  -161.843495

Showing only first 2 kpts
 Kpt  Band  Eigenvalues  Occupancy
  0   214      1.26574    1.29778
  0   215      1.26574    1.29777
  0   216      1.27779    1.24194
  0   217      1.31230    1.07413

  1   214      1.09921    1.81432
  1   215      1.11448    1.78696
  1   216      1.16477    1.67065
  1   217      1.16478    1.67064


Fermi level: 1.32716

No gap

Forces in eV/Ang:
  0 Pt    0.00000    0.00000   -0.00046
  1 Pt   -0.00000   -0.00001   -0.00044
  2 Pt   -0.00000    0.00000   -0.00046
  3 Pt   -0.00001    0.00000   -0.00044
  4 Pt    0.00001    0.00000   -0.00044
  5 Pt   -0.00000   -0.00002   -0.00045
  6 Pt    0.00000   -0.00001   -0.00046
  7 Pt   -0.00002    0.00001   -0.00045
  8 Pt    0.00002    0.00001   -0.00045
  9 Pt    0.00000    0.00001   -0.00066
 10 Pt   -0.00002   -0.00001   -0.00066
 11 Pt    0.00002   -0.00001   -0.00066
 12 Pt    0.00003   -0.00002   -0.00066
 13 Pt    0.00000    0.00002   -0.00066
 14 Pt   -0.00003   -0.00002   -0.00066
 15 Pt   -0.00001   -0.00001   -0.00066
 16 Pt    0.00001   -0.00001   -0.00066
 17 Pt    0.00000    0.00004   -0.00066
 18 Pt    0.00000   -0.00000    0.00179
 19 Pt   -0.00000    0.00001    0.00187
 20 Pt    0.00000    0.00001    0.00187
 21 Pt    0.00001   -0.00001    0.00187
 22 Pt    0.00000    0.00000    0.00182
 23 Pt   -0.00001   -0.00001    0.00187
 24 Pt    0.00001   -0.00000    0.00187
 25 Pt   -0.00001   -0.00000    0.00187
 26 Pt   -0.00000   -0.00000    0.00177

Writing to Pt.gpw (mode='')


  ___ ___ ___ _ _ _  
 |   |   |_  | | | | 
 | | | | | . | | | | 
 |__ |  _|___|_____|  22.8.0
 |___|_|             

User:   jesfra@vera22-4
Date:   Fri Feb 24 17:36:12 2023
Arch:   x86_64
Pid:    1718614
CWD:    /cephyr/users/jesfra/Vera/A4
Python: 3.10.4
gpaw:   /apps/Arch/software/GPAW/22.8.0-foss-2022a/lib/python3.10/site-packages/gpaw
_gpaw:  /apps/Arch/software/GPAW/22.8.0-foss-2022a/lib/python3.10/site-packages/
        _gpaw.cpython-310-x86_64-linux-gnu.so
ase:    /apps/Arch/software/ASE/3.22.1-foss-2022a/lib/python3.10/site-packages/ase (version 3.22.1)
numpy:  /apps/Arch/software/SciPy-bundle/2022.05-foss-2022a/lib/python3.10/site-packages/numpy (version 1.22.3)
scipy:  /apps/Arch/software/SciPy-bundle/2022.05-foss-2022a/lib/python3.10/site-packages/scipy (version 1.8.1)
libxc:  5.2.3
units:  Angstrom and eV
cores: 32
OpenMP: False
OMP_NUM_THREADS: 1

Input parameters:
  kpts: [4 4 1]
  mode: {ecut: 450.00000000000006,
         name: pw}
  xc: PBE

Timing:                                      incl.     excl.
-------------------------------------------------------------------
Density initialized from wave functions:     0.906     0.722   0.2% |
 Symmetrize density:                         0.184     0.184   0.1% |
Forces:                                      2.668     2.668   0.9% |
Hamiltonian:                                 2.799     0.026   0.0% |
 Atomic:                                     0.001     0.001   0.0% |
  XC Correction:                             0.000     0.000   0.0% |
 Calculate atomic Hamiltonians:              0.190     0.190   0.1% |
 Communicate:                                0.377     0.377   0.1% |
 Initialize Hamiltonian:                     0.000     0.000   0.0% |
 Poisson:                                    0.002     0.002   0.0% |
 XC 3D grid:                                 2.204     2.204   0.7% |
LCAO initialization:                        10.111     0.093   0.0% |
 LCAO eigensolver:                           0.848     0.001   0.0% |
  Calculate projections:                     0.000     0.000   0.0% |
  DenseAtomicCorrection:                     0.000     0.000   0.0% |
  Distribute overlap matrix:                 0.600     0.600   0.2% |
  Orbital Layouts:                           0.212     0.212   0.1% |
  Potential matrix:                          0.024     0.024   0.0% |
  Sum over cells:                            0.010     0.010   0.0% |
 LCAO to grid:                               8.845     8.845   2.9% ||
 Set positions (LCAO WFS):                   0.325     0.257   0.1% |
  Basic WFS set positions:                   0.004     0.004   0.0% |
  Basis functions set positions:             0.000     0.000   0.0% |
  P tci:                                     0.001     0.001   0.0% |
  ST tci:                                    0.032     0.032   0.0% |
  mktci:                                     0.031     0.031   0.0% |
PWDescriptor:                                0.267     0.267   0.1% |
Redistribute:                                0.003     0.003   0.0% |
SCF-cycle:                                 280.314     0.858   0.3% |
 Davidson:                                 252.948    32.808  10.9% |---|
  Apply H:                                  17.820    17.304   5.8% |-|
   HMM T:                                    0.516     0.516   0.2% |
  Subspace diag:                            36.913     0.023   0.0% |
   calc_h_matrix:                           24.369     3.597   1.2% |
    Apply H:                                20.772    20.254   6.7% |--|
     HMM T:                                  0.518     0.518   0.2% |
   diagonalize:                              6.407     6.407   2.1% ||
   rotate_psi:                               6.114     6.114   2.0% ||
  calc. matrices:                           61.581    26.239   8.7% |--|
   Apply H:                                 35.341    34.319  11.4% |----|
    HMM T:                                   1.022     1.022   0.3% |
  diagonalize:                              90.879    90.879  30.3% |-----------|
  rotate_psi:                               12.947    12.947   4.3% |-|
 Density:                                   16.265     0.001   0.0% |
  Atomic density matrices:                   0.229     0.229   0.1% |
  Mix:                                       3.467     3.467   1.2% |
  Multipole moments:                         0.010     0.010   0.0% |
  Pseudo density:                           12.557     9.632   3.2% ||
   Symmetrize density:                       2.925     2.925   1.0% |
 Hamiltonian:                                9.172     0.192   0.1% |
  Atomic:                                    0.011     0.011   0.0% |
   XC Correction:                            0.000     0.000   0.0% |
  Calculate atomic Hamiltonians:             2.168     2.168   0.7% |
  Communicate:                               4.068     4.068   1.4% ||
  Poisson:                                   0.036     0.036   0.0% |
  XC 3D grid:                                2.697     2.697   0.9% |
 Orthonormalize:                             1.071     0.003   0.0% |
  calc_s_matrix:                             0.126     0.126   0.0% |
  inverse-cholesky:                          0.191     0.191   0.1% |
  projections:                               0.528     0.528   0.2% |
  rotate_psi_s:                              0.224     0.224   0.1% |
Set symmetry:                                0.003     0.003   0.0% |
Other:                                       3.038     3.038   1.0% |
-------------------------------------------------------------------
Total:                                               300.110 100.0%

Memory usage: 422.30 MiB
Date: Fri Feb 24 17:36:12 2023
System changes: positions, numbers, cell, pbc, initial_charges, initial_magmoms 

Initialize ...

species:
  Rh:
    name: Rhodium
    id: 4e1d209aee696a641de1ffa1459b299f
    Z: 45.0
    valence: 15
    core: 30
    charge: 0.0
    file: /apps/Common/software/GPAW-setups/0.9.20000/Rh.PBE.gz
    compensation charges: {type: gauss,
                           rc: 0.38,
                           lmax: 2}
    cutoffs: {filter: 2.48,
              core: 2.35}
    valence states:
      #              energy  rcut
      - 5s(1.00)    -4.297   1.270
      - 4p(6.00)   -50.429   1.381
      - 5p(0.00)    -0.852   1.381
      - 4d(8.00)    -5.942   1.244
      -  s          22.915   1.270
      -  d          21.270   1.244
  
    # Using partial waves for Rh as LCAO basis

Reference energy: -3513635.469005  # eV

Spin-paired calculation

Convergence criteria:
 Maximum [total energy] change in last 3 cyles: 0.0005 eV / electron
 Maximum integral of absolute [dens]ity change: 0.0001 electrons / valence electron
 Maximum integral of absolute [eigenst]ate change: 4e-08 eV^2 / valence electron
 Maximum number of scf [iter]ations: 333
 (Square brackets indicate name in SCF output, whereas a 'c' in
 the SCF output indicates the quantity has converged.)

Symmetries present (total): 6

  ( 1  0  0)  ( 1 -1  0)  ( 0  1  0)  ( 0 -1  0)  (-1  1  0)  (-1  0  0)
  ( 0  1  0)  ( 0 -1  0)  ( 1  0  0)  ( 1 -1  0)  (-1  0  0)  (-1  1  0)
  ( 0  0  1)  ( 0  0  1)  ( 0  0  1)  ( 0  0  1)  ( 0  0  1)  ( 0  0  1)
Note: your k-points are not as symmetric as your crystal!

16 k-points: 4 x 4 x 1 Monkhorst-Pack grid
6 k-points in the irreducible part of the Brillouin zone
       k-points in crystal coordinates                weights
   0:     0.12500000   -0.12500000    0.00000000          2/16
   1:     0.12500000    0.12500000    0.00000000          2/16
   2:     0.37500000   -0.37500000    0.00000000          2/16
   3:     0.37500000   -0.12500000    0.00000000          4/16
   4:     0.37500000    0.12500000    0.00000000          4/16
   5:     0.37500000    0.37500000    0.00000000          2/16

Wave functions: Plane wave expansion
  Cutoff energy: 450.000 eV
  Number of coefficients (min, max): 20446, 20512
  Pulay-stress correction: 0.000000 eV/Ang^3 (de/decut=0.000000)
  Using FFTW library
  ScaLapack parameters: grid=1x1, blocksize=None
  Wavefunction extrapolation:
    Improved wavefunction reuse through dual PAW basis 

Occupation numbers: Fermi-Dirac:
  width: 0.1000  # eV
 

Eigensolver
   Davidson(niter=2) 

Densities:
  Coarse grid: 40*40*81 grid
  Fine grid: 80*80*162 grid
  Total Charge: 0.000000 

Density mixing:
  Method: separate
  Backend: pulay
  Linear mixing parameter: 0.05
  old densities: 5
  Damping of long wavelength oscillations: 50 

Hamiltonian:
  XC and Coulomb potentials evaluated on a 80*80*162 grid
  Using the PBE Exchange-Correlation functional
  External potential:
    NoExternalPotential
 

XC parameters: PBE with 2 nearest neighbor stencil

Memory estimate:
  Process memory now: 422.30 MiB
  Calculator: 330.84 MiB
    Density: 3.62 MiB
      Arrays: 1.63 MiB
      Localized functions: 1.35 MiB
      Mixer: 0.64 MiB
    Hamiltonian: 1.09 MiB
      Arrays: 1.07 MiB
      XC: 0.00 MiB
      Poisson: 0.00 MiB
      vbar: 0.03 MiB
    Wavefunctions: 326.12 MiB
      Arrays psit_nG: 231.92 MiB
      Eigensolver: 88.19 MiB
      Projections: 0.34 MiB
      Projectors: 0.44 MiB
      PW-descriptor: 5.22 MiB

Total number of cores used: 32
Parallelization over k-points: 2
Domain decomposition: 2 x 2 x 4

Number of atoms: 27
Number of atomic orbitals: 324
Number of bands in calculation: 247
Number of valence electrons: 405
Bands to converge: occupied

... initialized

Initializing position-dependent things.

Density initialized from atomic densities
Creating initial wave functions:
  247 bands from LCAO basis set

                                           
                                           
                                           
                                           
                Rh     Rh     Rh           
                                           
            Rh   RRh    RRh    Rh          
       Rh     Rh    Rh                     
             Rh    Rh     Rh               
        Rh     Rh   RRh    Rh    Rh        
                                           
                Rh    Rh     Rh            
           Rh    Rh     Rh                 
                                           
                                           
                                           
                                           

Positions:
   0 Rh     1.357291    0.783633    6.000000    ( 0.0000,  0.0000,  0.0000)
   1 Rh     4.071874    0.783633    6.000000    ( 0.0000,  0.0000,  0.0000)
   2 Rh     6.786457    0.783633    6.000000    ( 0.0000,  0.0000,  0.0000)
   3 Rh     2.714583    3.134530    6.000000    ( 0.0000,  0.0000,  0.0000)
   4 Rh     5.429166    3.134530    6.000000    ( 0.0000,  0.0000,  0.0000)
   5 Rh     8.143749    3.134530    6.000000    ( 0.0000,  0.0000,  0.0000)
   6 Rh     4.071874    5.485428    6.000000    ( 0.0000,  0.0000,  0.0000)
   7 Rh     6.786457    5.485428    6.000000    ( 0.0000,  0.0000,  0.0000)
   8 Rh     9.501040    5.485428    6.000000    ( 0.0000,  0.0000,  0.0000)
   9 Rh    -0.000000    1.567265    8.216448    ( 0.0000,  0.0000,  0.0000)
  10 Rh     2.714583    1.567265    8.216448    ( 0.0000,  0.0000,  0.0000)
  11 Rh     5.429166    1.567265    8.216448    ( 0.0000,  0.0000,  0.0000)
  12 Rh     1.357291    3.918163    8.216448    ( 0.0000,  0.0000,  0.0000)
  13 Rh     4.071874    3.918163    8.216448    ( 0.0000,  0.0000,  0.0000)
  14 Rh     6.786457    3.918163    8.216448    ( 0.0000,  0.0000,  0.0000)
  15 Rh     2.714583    6.269061    8.216448    ( 0.0000,  0.0000,  0.0000)
  16 Rh     5.429166    6.269061    8.216448    ( 0.0000,  0.0000,  0.0000)
  17 Rh     8.143749    6.269061    8.216448    ( 0.0000,  0.0000,  0.0000)
  18 Rh     0.000000    0.000000   10.432895    ( 0.0000,  0.0000,  0.0000)
  19 Rh     2.714583    0.000000   10.432895    ( 0.0000,  0.0000,  0.0000)
  20 Rh     5.429166    0.000000   10.432895    ( 0.0000,  0.0000,  0.0000)
  21 Rh     1.357291    2.350898   10.432895    ( 0.0000,  0.0000,  0.0000)
  22 Rh     4.071874    2.350898   10.432895    ( 0.0000,  0.0000,  0.0000)
  23 Rh     6.786457    2.350898   10.432895    ( 0.0000,  0.0000,  0.0000)
  24 Rh     2.714583    4.701796   10.432895    ( 0.0000,  0.0000,  0.0000)
  25 Rh     5.429166    4.701796   10.432895    ( 0.0000,  0.0000,  0.0000)
  26 Rh     8.143749    4.701796   10.432895    ( 0.0000,  0.0000,  0.0000)

Unit cell:
           periodic     x           y           z      points  spacing
  1. axis:    yes    8.143749    0.000000    0.000000    40     0.1763
  2. axis:    yes    4.071874    7.052693    0.000000    40     0.1763
  3. axis:    no     0.000000    0.000000   16.432895    81     0.2029

  Lengths:   8.143749   8.143749  16.432895
  Angles:   90.000000  90.000000  60.000000

Effective grid spacing dv^(1/3) = 0.1938

     iter     time        total  log10-change:
                         energy  eigst   dens
iter:   1 17:36:33  -195.904131
iter:   2 17:36:37  -193.513883  -1.35  -1.37
iter:   3 17:36:42  -186.565521  -0.49  -1.39
iter:   4 17:36:46  -183.930575  -1.95  -1.74
iter:   5 17:36:50  -183.191826  -2.27  -1.95
iter:   6 17:36:54  -183.394292  -2.49  -2.10
iter:   7 17:36:59  -182.890117  -2.26  -2.08
iter:   8 17:37:03  -182.844210  -3.43  -2.41
iter:   9 17:37:07  -182.816483c -2.98  -2.53
iter:  10 17:37:11  -182.812872c -3.96  -2.97
iter:  11 17:37:16  -182.813493c -4.39  -3.14
iter:  12 17:37:20  -182.813662c -4.59  -3.17
iter:  13 17:37:24  -182.814699c -4.61  -3.36
iter:  14 17:37:28  -182.814641c -5.25  -3.76
iter:  15 17:37:32  -182.814603c -5.54  -3.76
iter:  16 17:37:37  -182.814596c -5.86  -3.87
iter:  17 17:37:41  -182.814442c -6.02  -3.89
iter:  18 17:37:45  -182.814408c -6.32  -4.15c
iter:  19 17:37:49  -182.814412c -6.78  -4.39c
iter:  20 17:37:53  -182.814418c -7.01  -4.38c
iter:  21 17:37:58  -182.814444c -7.08  -4.50c
iter:  22 17:38:02  -182.814416c -7.31  -4.25c
iter:  23 17:38:06  -182.814415c -7.92c -4.88c

Converged after 23 iterations.

Dipole moment: (-0.235562, -0.136002, -0.000040) |e|*Ang

Energy contributions relative to reference atoms: (reference = -3513635.469005)

Kinetic:       -189.317449
Potential:     +108.056629
External:        +0.000000
XC:             -98.572556
Entropy (-ST):   -1.698977
Local:           -2.131551
--------------------------
Free energy:   -183.663904
Extrapolated:  -182.814415

Showing only first 2 kpts
 Kpt  Band  Eigenvalues  Occupancy
  0   200      1.55538    1.16035
  0   201      1.60998    0.88920
  0   202      1.60999    0.88916
  0   203      1.61158    0.88132

  1   200      1.50605    1.38711
  1   201      1.50605    1.38710
  1   202      1.57201    1.07844
  1   203      1.61861    0.84678


Fermi level: 1.58773

No gap

Forces in eV/Ang:
  0 Rh    0.00002    0.00001    0.43296
  1 Rh    0.00000    0.00004    0.43309
  2 Rh   -0.00002    0.00001    0.43296
  3 Rh    0.00003   -0.00002    0.43309
  4 Rh   -0.00003   -0.00002    0.43309
  5 Rh   -0.00000   -0.00008    0.43305
  6 Rh   -0.00000   -0.00003    0.43296
  7 Rh   -0.00007    0.00004    0.43305
  8 Rh    0.00007    0.00004    0.43305
  9 Rh    0.00000    0.00011   -0.00020
 10 Rh   -0.00013   -0.00007   -0.00022
 11 Rh    0.00013   -0.00007   -0.00022
 12 Rh   -0.00015    0.00009   -0.00019
 13 Rh   -0.00000    0.00015   -0.00022
 14 Rh    0.00015    0.00009   -0.00019
 15 Rh   -0.00009   -0.00005   -0.00020
 16 Rh    0.00009   -0.00005   -0.00020
 17 Rh    0.00000   -0.00017   -0.00019
 18 Rh    0.00000    0.00000   -0.43239
 19 Rh    0.00013   -0.00006   -0.43254
 20 Rh   -0.00013   -0.00006   -0.43254
 21 Rh    0.00001    0.00014   -0.43254
 22 Rh   -0.00000    0.00000   -0.43263
 23 Rh   -0.00001    0.00014   -0.43254
 24 Rh   -0.00012   -0.00008   -0.43254
 25 Rh    0.00012   -0.00008   -0.43254
 26 Rh   -0.00000    0.00000   -0.43258

System changes: positions 

Initializing position-dependent things.

Density initialized from wave functions
                                           
                                           
                                           
                                           
                Rh     Rh     Rh           
                                           
            Rh   RRh    RRh    Rh          
       Rh     Rh    Rh                     
             Rh    Rh     Rh               
        Rh     Rh   RRh    Rh    Rh        
                                           
                Rh    Rh     Rh            
           Rh    Rh     Rh                 
                                           
                                           
                                           
                                           

Positions:
   0 Rh     1.357292    0.783633    6.006185    ( 0.0000,  0.0000,  0.0000)
   1 Rh     4.071874    0.783633    6.006187    ( 0.0000,  0.0000,  0.0000)
   2 Rh     6.786457    0.783633    6.006185    ( 0.0000,  0.0000,  0.0000)
   3 Rh     2.714583    3.134530    6.006187    ( 0.0000,  0.0000,  0.0000)
   4 Rh     5.429165    3.134530    6.006187    ( 0.0000,  0.0000,  0.0000)
   5 Rh     8.143749    3.134529    6.006186    ( 0.0000,  0.0000,  0.0000)
[...]
 18 Rh    0.00000    0.00000   -0.05132
 19 Rh    0.00005    0.00013   -0.05093
 20 Rh   -0.00005    0.00013   -0.05093
 21 Rh    0.00014   -0.00002   -0.05093
 22 Rh    0.00000    0.00000   -0.05081
 23 Rh   -0.00014   -0.00002   -0.05093
 24 Rh    0.00009   -0.00011   -0.05093
 25 Rh   -0.00009   -0.00011   -0.05093
 26 Rh   -0.00000    0.00000   -0.05076

System changes: positions 

Initializing position-dependent things.

Density initialized from wave functions
                                           
                                           
                                           
                                           
                Rh     Rh     Rh           
                                           
            Rh   RRh    RRh    Rh          
       Rh     Rh    Rh                     
             Rh    Rh     Rh               
        Rh     Rh   RRh    Rh    Rh        
                                           
                Rh    Rh     Rh            
           Rh    Rh     Rh                 
                                           
                                           
                                           
                                           

Positions:
   0 Rh     1.357287    0.783630    6.057309    ( 0.0000,  0.0000,  0.0000)
   1 Rh     4.071874    0.783637    6.057336    ( 0.0000,  0.0000,  0.0000)
   2 Rh     6.786462    0.783630    6.057309    ( 0.0000,  0.0000,  0.0000)
   3 Rh     2.714587    3.134528    6.057336    ( 0.0000,  0.0000,  0.0000)
   4 Rh     5.429162    3.134528    6.057336    ( 0.0000,  0.0000,  0.0000)
   5 Rh     8.143749    3.134517    6.057321    ( 0.0000,  0.0000,  0.0000)
   6 Rh     4.071874    5.485433    6.057309    ( 0.0000,  0.0000,  0.0000)
   7 Rh     6.786446    5.485435    6.057321    ( 0.0000,  0.0000,  0.0000)
   8 Rh     9.501051    5.485435    6.057321    ( 0.0000,  0.0000,  0.0000)
   9 Rh    -0.000000    1.567272    8.216524    ( 0.0000,  0.0000,  0.0000)
  10 Rh     2.714568    1.567257    8.216521    ( 0.0000,  0.0000,  0.0000)
  11 Rh     5.429180    1.567257    8.216521    ( 0.0000,  0.0000,  0.0000)
  12 Rh     1.357276    3.918172    8.216522    ( 0.0000,  0.0000,  0.0000)
  13 Rh     4.071874    3.918180    8.216521    ( 0.0000,  0.0000,  0.0000)
  14 Rh     6.786472    3.918172    8.216522    ( 0.0000,  0.0000,  0.0000)
  15 Rh     2.714577    6.269057    8.216524    ( 0.0000,  0.0000,  0.0000)
  16 Rh     5.429172    6.269057    8.216524    ( 0.0000,  0.0000,  0.0000)
  17 Rh     8.143749    6.269043    8.216522    ( 0.0000,  0.0000,  0.0000)
  18 Rh    -0.000000    0.000000   10.375717    ( 0.0000,  0.0000,  0.0000)
  19 Rh     2.714595   -0.000007   10.375697    ( 0.0000,  0.0000,  0.0000)
  20 Rh     5.429153   -0.000007   10.375697    ( 0.0000,  0.0000,  0.0000)
  21 Rh     1.357291    2.350912   10.375697    ( 0.0000,  0.0000,  0.0000)
  22 Rh     4.071874    2.350898   10.375680    ( 0.0000,  0.0000,  0.0000)
  23 Rh     6.786457    2.350912   10.375697    ( 0.0000,  0.0000,  0.0000)
  24 Rh     2.714570    4.701788   10.375697    ( 0.0000,  0.0000,  0.0000)
  25 Rh     5.429178    4.701788   10.375697    ( 0.0000,  0.0000,  0.0000)
  26 Rh     8.143749    4.701796   10.375698    ( 0.0000,  0.0000,  0.0000)

Unit cell:
           periodic     x           y           z      points  spacing
  1. axis:    yes    8.143749    0.000000    0.000000    40     0.1763
  2. axis:    yes    4.071874    7.052693    0.000000    40     0.1763
  3. axis:    no     0.000000    0.000000   16.432895    81     0.2029

  Lengths:   8.143749   8.143749  16.432895
  Angles:   90.000000  90.000000  60.000000

Effective grid spacing dv^(1/3) = 0.1938

     iter     time        total  log10-change:
                         energy  eigst   dens
iter:   1 17:40:32  -183.242688  -2.91
iter:   2 17:40:36  -183.107181  -3.28  -2.38
iter:   3 17:40:41  -183.138763c -4.12  -2.88
iter:   4 17:40:45  -183.093346c -4.57  -2.65
iter:   5 17:40:49  -183.089914c -4.38  -3.15
iter:   6 17:40:53  -183.090074c -4.93  -3.51
iter:   7 17:40:58  -183.089724c -5.33  -3.62
iter:   8 17:41:02  -183.089635c -6.00  -3.81
iter:   9 17:41:06  -183.089613c -6.50  -4.08c
iter:  10 17:41:10  -183.089606c -6.61  -4.16c
iter:  11 17:41:14  -183.089566c -6.77  -4.18c
iter:  12 17:41:19  -183.089509c -6.69  -4.26c
iter:  13 17:41:23  -183.089510c -7.68c -4.75c

Converged after 13 iterations.

Dipole moment: (-0.260487, -0.150392, -0.000138) |e|*Ang

Energy contributions relative to reference atoms: (reference = -3513635.469005)

Kinetic:       -151.047615
Potential:      +76.230771
External:        +0.000000
XC:            -105.281351
Entropy (-ST):   -1.604842
Local:           -2.188894
--------------------------
Free energy:   -183.891931
Extrapolated:  -183.089510

Showing only first 2 kpts
 Kpt  Band  Eigenvalues  Occupancy
  0   200      1.60417    1.11381
  0   201      1.60418    1.11376
  0   202      1.60813    1.09426
  0   203      1.67504    0.76449

  1   200      1.54486    1.38923
  1   201      1.56058    1.32058
  1   202      1.56058    1.32056
  1   203      1.67422    0.76835


Fermi level: 1.62704

No gap

Forces in eV/Ang:
  0 Rh    0.00011    0.00007   -0.00918
  1 Rh   -0.00000    0.00008   -0.00950
  2 Rh   -0.00011    0.00007   -0.00918
  3 Rh    0.00007   -0.00004   -0.00950
  4 Rh   -0.00007   -0.00004   -0.00950
  5 Rh    0.00000    0.00007   -0.00942
  6 Rh    0.00000   -0.00013   -0.00918
  7 Rh    0.00006   -0.00004   -0.00942
  8 Rh   -0.00006   -0.00004   -0.00942
  9 Rh   -0.00000    0.00000    0.00004
 10 Rh    0.00016    0.00009    0.00005
 11 Rh   -0.00016    0.00009    0.00005
 12 Rh    0.00013   -0.00007   -0.00006
 13 Rh    0.00000   -0.00019    0.00005
 14 Rh   -0.00013   -0.00007   -0.00006
 15 Rh   -0.00000   -0.00000    0.00004
 16 Rh    0.00000   -0.00000    0.00004
 17 Rh   -0.00000    0.00015   -0.00006
 18 Rh    0.00000    0.00000    0.01053
 19 Rh    0.00006    0.00012    0.01086
 20 Rh   -0.00006    0.00012    0.01086
 21 Rh    0.00013   -0.00001    0.01086
 22 Rh    0.00000    0.00000    0.01096
 23 Rh   -0.00013   -0.00001    0.01086
 24 Rh    0.00007   -0.00011    0.01086
 25 Rh   -0.00007   -0.00011    0.01086
 26 Rh    0.00000    0.00000    0.01101

System changes: positions 

Initializing position-dependent things.

Density initialized from wave functions
                                           
                                           
                                           
                                           
                Rh     Rh     Rh           
                                           
            Rh   RRh    RRh    Rh          
       Rh     Rh    Rh                     
             Rh    Rh     Rh               
        Rh     Rh   RRh    Rh    Rh        
                                           
                Rh    Rh     Rh            
           Rh    Rh     Rh                 
                                           
                                           
                                           
                                           

Positions:
   0 Rh     1.357289    0.783631    6.056185    ( 0.0000,  0.0000,  0.0000)
   1 Rh     4.071874    0.783638    6.056207    ( 0.0000,  0.0000,  0.0000)
   2 Rh     6.786460    0.783631    6.056185    ( 0.0000,  0.0000,  0.0000)
   3 Rh     2.714587    3.134528    6.056207    ( 0.0000,  0.0000,  0.0000)
   4 Rh     5.429161    3.134528    6.056207    ( 0.0000,  0.0000,  0.0000)
   5 Rh     8.143749    3.134519    6.056194    ( 0.0000,  0.0000,  0.0000)
   6 Rh     4.071874    5.485431    6.056185    ( 0.0000,  0.0000,  0.0000)
   7 Rh     6.786447    5.485434    6.056194    ( 0.0000,  0.0000,  0.0000)
   8 Rh     9.501051    5.485434    6.056194    ( 0.0000,  0.0000,  0.0000)
   9 Rh    -0.000000    1.567272    8.216523    ( 0.0000,  0.0000,  0.0000)
  10 Rh     2.714571    1.567258    8.216520    ( 0.0000,  0.0000,  0.0000)
  11 Rh     5.429178    1.567258    8.216520    ( 0.0000,  0.0000,  0.0000)
  12 Rh     1.357278    3.918171    8.216520    ( 0.0000,  0.0000,  0.0000)
  13 Rh     4.071874    3.918177    8.216520    ( 0.0000,  0.0000,  0.0000)
  14 Rh     6.786471    3.918171    8.216520    ( 0.0000,  0.0000,  0.0000)
  15 Rh     2.714577    6.269057    8.216523    ( 0.0000,  0.0000,  0.0000)
  16 Rh     5.429172    6.269057    8.216523    ( 0.0000,  0.0000,  0.0000)
  17 Rh     8.143749    6.269045    8.216520    ( 0.0000,  0.0000,  0.0000)
  18 Rh    -0.000000    0.000000   10.376855    ( 0.0000,  0.0000,  0.0000)
  19 Rh     2.714596   -0.000006   10.376840    ( 0.0000,  0.0000,  0.0000)
  20 Rh     5.429153   -0.000006   10.376840    ( 0.0000,  0.0000,  0.0000)
  21 Rh     1.357293    2.350912   10.376840    ( 0.0000,  0.0000,  0.0000)
  22 Rh     4.071874    2.350898   10.376824    ( 0.0000,  0.0000,  0.0000)
  23 Rh     6.786456    2.350912   10.376840    ( 0.0000,  0.0000,  0.0000)
  24 Rh     2.714572    4.701787   10.376840    ( 0.0000,  0.0000,  0.0000)
  25 Rh     5.429177    4.701787   10.376840    ( 0.0000,  0.0000,  0.0000)
  26 Rh     8.143749    4.701796   10.376842    ( 0.0000,  0.0000,  0.0000)

Unit cell:
           periodic     x           y           z      points  spacing
  1. axis:    yes    8.143749    0.000000    0.000000    40     0.1763
  2. axis:    yes    4.071874    7.052693    0.000000    40     0.1763
  3. axis:    no     0.000000    0.000000   16.432895    81     0.2029

  Lengths:   8.143749   8.143749  16.432895
  Angles:   90.000000  90.000000  60.000000

Effective grid spacing dv^(1/3) = 0.1938

     iter     time        total  log10-change:
                         energy  eigst   dens
iter:   1 17:41:29  -183.095151  -4.45
iter:   2 17:41:33  -183.089374  -4.82  -3.16
iter:   3 17:41:37  -183.091128c -5.47  -3.55
iter:   4 17:41:41  -183.088898c -5.92  -3.32
iter:   5 17:41:45  -183.088792c -5.89  -3.92
iter:   6 17:41:50  -183.088719c -6.71  -4.30c
iter:   7 17:41:54  -183.088758c -7.51c -4.42c

Converged after 7 iterations.

Dipole moment: (-0.261622, -0.151047, -0.000002) |e|*Ang

Energy contributions relative to reference atoms: (reference = -3513635.469005)

Kinetic:       -150.841296
Potential:      +75.944010
External:        +0.000000
XC:            -105.213338
Entropy (-ST):   -1.606537
Local:           -2.174864
--------------------------
Free energy:   -183.892026
Extrapolated:  -183.088758

Showing only first 2 kpts
 Kpt  Band  Eigenvalues  Occupancy
  0   200      1.60358    1.10910
  0   201      1.60360    1.10904
  0   202      1.60633    1.09553
  0   203      1.67304    0.76662

  1   200      1.54473    1.38321
  1   201      1.55874    1.32187
  1   202      1.55875    1.32186
  1   203      1.67239    0.76972


Fermi level: 1.62549

No gap

Forces in eV/Ang:
  0 Rh    0.00038    0.00022    0.00549
  1 Rh    0.00000    0.00020    0.00508
  2 Rh   -0.00038    0.00022    0.00549
  3 Rh    0.00017   -0.00010    0.00508
  4 Rh   -0.00017   -0.00010    0.00508
  5 Rh    0.00000    0.00025    0.00519
  6 Rh    0.00000   -0.00044    0.00549
  7 Rh    0.00022   -0.00013    0.00519
  8 Rh   -0.00022   -0.00013    0.00519
  9 Rh    0.00000    0.00030    0.00020
 10 Rh    0.00045    0.00026    0.00024
 11 Rh   -0.00045    0.00026    0.00024
 12 Rh    0.00016   -0.00009    0.00009
 13 Rh   -0.00000   -0.00053    0.00024
 14 Rh   -0.00016   -0.00009    0.00009
 15 Rh   -0.00026   -0.00015    0.00020
 16 Rh    0.00026   -0.00015    0.00020
 17 Rh    0.00000    0.00018    0.00009
 18 Rh    0.00000    0.00000   -0.00570
 19 Rh    0.00031    0.00021   -0.00524
 20 Rh   -0.00031    0.00021   -0.00524
 21 Rh    0.00034    0.00016   -0.00524
 22 Rh    0.00000    0.00000   -0.00508
 23 Rh   -0.00034    0.00016   -0.00524
 24 Rh    0.00003   -0.00037   -0.00524
 25 Rh   -0.00003   -0.00037   -0.00524
 26 Rh    0.00000    0.00000   -0.00509

Writing to Rh.gpw (mode='')

Surfaces energies:
Au = 0.03888383731264622 eV
Pt = 0.08318369349326853 eV
Rh = 0.1068539248253343 eV
Timing:                                      incl.     excl.
-------------------------------------------------------------------
Density initialized from wave functions:     1.046     0.843   0.2% |
 Symmetrize density:                         0.203     0.203   0.1% |
Forces:                                      3.375     3.375   1.0% |
Hamiltonian:                                 3.204     0.028   0.0% |
 Atomic:                                     0.001     0.001   0.0% |
  XC Correction:                             0.000     0.000   0.0% |
 Calculate atomic Hamiltonians:              0.217     0.217   0.1% |
 Communicate:                                0.392     0.392   0.1% |
 Initialize Hamiltonian:                     0.000     0.000   0.0% |
 Poisson:                                    0.002     0.002   0.0% |
 XC 3D grid:                                 2.563     2.563   0.7% |
LCAO initialization:                         9.334     0.093   0.0% |
 LCAO eigensolver:                           0.889     0.001   0.0% |
  Calculate projections:                     0.000     0.000   0.0% |
  DenseAtomicCorrection:                     0.000     0.000   0.0% |
  Distribute overlap matrix:                 0.607     0.607   0.2% |
  Orbital Layouts:                           0.245     0.245   0.1% |
  Potential matrix:                          0.026     0.026   0.0% |
  Sum over cells:                            0.009     0.009   0.0% |
 LCAO to grid:                               7.955     7.955   2.3% ||
 Set positions (LCAO WFS):                   0.397     0.333   0.1% |
  Basic WFS set positions:                   0.004     0.004   0.0% |
  Basis functions set positions:             0.000     0.000   0.0% |
  P tci:                                     0.001     0.001   0.0% |
  ST tci:                                    0.029     0.029   0.0% |
  mktci:                                     0.029     0.029   0.0% |
PWDescriptor:                                0.381     0.381   0.1% |
Redistribute:                                0.003     0.003   0.0% |
SCF-cycle:                                 321.812     0.829   0.2% |
 Davidson:                                 289.819    40.282  11.8% |----|
  Apply H:                                  20.799    20.182   5.9% |-|
   HMM T:                                    0.617     0.617   0.2% |
  Subspace diag:                            41.175     0.030   0.0% |
   calc_h_matrix:                           27.043     4.194   1.2% |
    Apply H:                                22.849    22.226   6.5% |--|
     HMM T:                                  0.623     0.623   0.2% |
   diagonalize:                              7.565     7.565   2.2% ||
   rotate_psi:                               6.538     6.538   1.9% ||
  calc. matrices:                           71.170    30.068   8.8% |---|
   Apply H:                                 41.102    39.879  11.6% |----|
    HMM T:                                   1.223     1.223   0.4% |
  diagonalize:                             102.405   102.405  29.9% |-----------|
  rotate_psi:                               13.986    13.986   4.1% |-|
 Density:                                   19.083     0.002   0.0% |
  Atomic density matrices:                   0.336     0.336   0.1% |
  Mix:                                       4.336     4.336   1.3% ||
  Multipole moments:                         0.015     0.015   0.0% |
  Pseudo density:                           14.394    10.862   3.2% ||
   Symmetrize density:                       3.532     3.532   1.0% |
 Hamiltonian:                               10.989     0.225   0.1% |
  Atomic:                                    0.016     0.015   0.0% |
   XC Correction:                            0.000     0.000   0.0% |
  Calculate atomic Hamiltonians:             2.795     2.795   0.8% |
  Communicate:                               4.743     4.743   1.4% ||
  Poisson:                                   0.044     0.044   0.0% |
  XC 3D grid:                                3.167     3.167   0.9% |
 Orthonormalize:                             1.092     0.003   0.0% |
  calc_s_matrix:                             0.133     0.133   0.0% |
  inverse-cholesky:                          0.184     0.184   0.1% |
  projections:                               0.549     0.549   0.2% |
  rotate_psi_s:                              0.223     0.223   0.1% |
Set symmetry:                                0.003     0.003   0.0% |
Other:                                       3.546     3.546   1.0% |
-------------------------------------------------------------------
Total:                                               342.705 100.0%

Memory usage: 429.36 MiB
Date: Fri Feb 24 17:41:55 2023
Surfaces energies:
Au = 0.03888383731264622 eV
Pt = 0.08318369349326853 eV
Rh = 0.1068539248253343 eV
Surfaces energies:
Au = 0.03888383731264622 eV
Pt = 0.08318369349326853 eV
Rh = 0.1068539248253343 eV
Surfaces energies:
Au = 0.03888383731264622 eV
Pt = 0.08318369349326853 eV
Rh = 0.1068539248253343 eV
Surfaces energies:
Au = 0.03888383731264622 eV
Pt = 0.08318369349326853 eV
Rh = 0.1068539248253343 eV
Surfaces energies:
Au = 0.03888383731264622 eV
Pt = 0.08318369349326853 eV
Rh = 0.1068539248253343 eV
Surfaces energies:
Au = 0.03888383731264622 eV
Pt = 0.08318369349326853 eV
Rh = 0.1068539248253343 eV
Surfaces energies:
Au = 0.03888383731264622 eV
Pt = 0.08318369349326853 eV
Rh = 0.1068539248253343 eV
Surfaces energies:
Au = 0.03888383731264622 eV
Pt = 0.08318369349326853 eV
Rh = 0.1068539248253343 eV
Surfaces energies:
Au = 0.03888383731264622 eV
Pt = 0.08318369349326853 eV
Rh = 0.1068539248253343 eV
Surfaces energies:
Au = 0.03888383731264622 eV
Pt = 0.08318369349326853 eV
Rh = 0.1068539248253343 eV
Surfaces energies:
Au = 0.03888383731264622 eV
Pt = 0.08318369349326853 eV
Rh = 0.1068539248253343 eV
Surfaces energies:
Au = 0.03888383731264622 eV
Pt = 0.08318369349326853 eV
Rh = 0.1068539248253343 eV
Surfaces energies:
Au = 0.03888383731264622 eV
Pt = 0.08318369349326853 eV
Rh = 0.1068539248253343 eV
Surfaces energies:
Au = 0.03888383731264622 eV
Pt = 0.08318369349326853 eV
Rh = 0.1068539248253343 eV
Surfaces energies:
Au = 0.03888383731264622 eV
Pt = 0.08318369349326853 eV
Rh = 0.1068539248253343 eV
Surfaces energies:
Au = 0.03888383731264622 eV
Pt = 0.08318369349326853 eV
Rh = 0.1068539248253343 eV
Surfaces energies:
Au = 0.03888383731264622 eV
Pt = 0.08318369349326853 eV
Rh = 0.1068539248253343 eV
Surfaces energies:
Au = 0.03888383731264622 eV
Pt = 0.08318369349326853 eV
Rh = 0.1068539248253343 eV
Surfaces energies:
Au = 0.03888383731264622 eV
Pt = 0.08318369349326853 eV
Rh = 0.1068539248253343 eV
Surfaces energies:
Au = 0.03888383731264622 eV
Pt = 0.08318369349326853 eV
Rh = 0.1068539248253343 eV
Surfaces energies:
Au = 0.03888383731264622 eV
Pt = 0.08318369349326853 eV
Rh = 0.1068539248253343 eV
Surfaces energies:
Au = 0.03888383731264622 eV
Pt = 0.08318369349326853 eV
Rh = 0.1068539248253343 eV
Surfaces energies:
Au = 0.03888383731264622 eV
Pt = 0.08318369349326853 eV
Rh = 0.1068539248253343 eV
Surfaces energies:
Au = 0.03888383731264622 eV
Pt = 0.08318369349326853 eV
Rh = 0.1068539248253343 eV
Surfaces energies:
Au = 0.03888383731264622 eV
Pt = 0.08318369349326853 eV
Rh = 0.1068539248253343 eV
Surfaces energies:
Au = 0.03888383731264622 eV
Pt = 0.08318369349326853 eV
Rh = 0.1068539248253343 eV
Surfaces energies:
Au = 0.03888383731264622 eV
Pt = 0.08318369349326853 eV
Rh = 0.1068539248253343 eV
Surfaces energies:
Au = 0.03888383731264622 eV
Pt = 0.08318369349326853 eV
Rh = 0.1068539248253343 eV
Surfaces energies:
Au = 0.03888383731264622 eV
Pt = 0.08318369349326853 eV
Rh = 0.1068539248253343 eV
Surfaces energies:
Au = 0.03888383731264622 eV
Pt = 0.08318369349326853 eV
Rh = 0.1068539248253343 eV
Surfaces energies:
Au = 0.03888383731264622 eV
Pt = 0.08318369349326853 eV
Rh = 0.1068539248253343 eV
