6
Lattice="16.0 0.0 0.0 0.0 16.0 0.0 0.0 0.0 16.0" Properties=species:S:1:pos:R:3:forces:R:3 unique_id=182d7f67c50138250e53eb66ad41c066 key_value_pairs="_JSON {\"origin\": \"StartingCandidateUnrelaxed\", \"relaxed\": 1, \"generation\": 0, \"extinct\": 0, \"gaid\": 21, \"raw_score\": 4.154888526010106}" confid=21 relax_id=41 energy=-4.154888526010106 pbc="F F F"
Na       6.87781179       7.00901962       6.37510136       0.00038120      -0.00098169       0.00036916
Na       9.76733109       6.19050505       8.09129040      -0.00060609       0.00189920       0.00016445
Na       9.55945529       9.19686795       6.39218490      -0.00196999       0.00107777       0.00013738
Na       9.56264068       9.16637646       9.85002925      -0.00128340       0.00020273      -0.00078926
Na       6.67191922       9.98025811       8.13182518       0.00199929       0.00066804       0.00049910
Na       6.88639073       6.97574178       9.83627129      -0.00014201       0.00087768      -0.00185848
