7
Lattice="16.0 0.0 0.0 0.0 16.0 0.0 0.0 0.0 16.0" Properties=species:S:1:pos:R:3:tags:I:1:forces:R:3 unique_id=c5eff435b0e5127cf48b31645767add0 key_value_pairs="_JSON {\"extinct\": 0, \"origin\": \"RattleMutation\", \"raw_score\": 5.873306105656069, \"generation\": 0, \"relaxed\": 1, \"gaid\": 111}" data="_JSON {\"parents\": [111]}" confid=111 relax_id=113 energy=-5.873306105656069 pbc="F F F"
Na       5.16132225       8.93871260       8.13966288        0      -0.00604406       0.00340406      -0.00446799
Na       6.68550247       5.84556989       7.78463014        1       0.00172518       0.00184427       0.00755070
Na       7.94052216       8.65783457       6.24017815        2       0.00952883      -0.00077904       0.00671051
Na       8.55731118       5.48126923      10.67777752        3      -0.00015557       0.00398741      -0.00532880
Na       5.52707566       6.97452577      10.85591489        4      -0.00145306      -0.00446966       0.00209642
Na       8.22888587       8.79255824       9.70693043        5       0.00158318      -0.00121357      -0.00317155
Na      10.07626028       6.55870494       7.84488517        6      -0.00427251      -0.00197621      -0.00416961
