7
Lattice="16.0 0.0 0.0 0.0 16.0 0.0 0.0 0.0 16.0" Properties=species:S:1:pos:R:3:tags:I:1:forces:R:3 unique_id=d83a32650da5c0bba707060620ef7a20 key_value_pairs="_JSON {\"extinct\": 0, \"origin\": \"CutAndSplicePairing\", \"raw_score\": 5.46957463161998, \"generation\": 0, \"relaxed\": 1, \"gaid\": 42}" data="_JSON {\"parents\": [14, 11]}" confid=42 relax_id=43 energy=-5.46957463161998 pbc="F F F"
Na       5.95725606       6.88967925       8.40540323        0       0.00273538       0.00018935      -0.01152559
Na       6.45452910       8.05085167      11.49414470        1       0.01005312      -0.00169755      -0.00488476
Na       6.47594494       7.78347795       5.38159272        2      -0.01660040      -0.00179486      -0.00776778
Na       8.39228754       9.59856915       9.26456847        3       0.01166356       0.00920236       0.00579132
Na      11.02602062       7.98925627       7.85270840        4       0.00807758       0.00544580       0.01484294
Na       8.87029521       9.97637278       6.01113755        5      -0.00824158      -0.01579408       0.00896285
Na       9.17623654       6.29643744       9.96981194        6      -0.00567304       0.00394335      -0.00491580
