8
Lattice="16.0 0.0 0.0 0.0 16.0 0.0 0.0 0.0 16.0" Properties=species:S:1:pos:R:3:tags:I:1:forces:R:3 unique_id=b59d33d7f60f868ab57adf468d92e768 key_value_pairs="_JSON {\"extinct\": 0, \"origin\": \"MirrorMutation\", \"raw_score\": 6.844804208500404, \"generation\": 0, \"relaxed\": 1, \"gaid\": 163}" data="_JSON {\"parents\": [163]}" confid=163 relax_id=165 energy=-6.844804208500404 pbc="F F F"
Na       5.93618780       9.06969176       6.50832933        0      -0.00661306      -0.01488875       0.00810276
Na       5.55031823       8.62806339       9.73386824        0      -0.00419082       0.00987377       0.00703265
Na       6.76557823       5.59344512       9.81868283        0      -0.00810587       0.00274995      -0.00804352
Na       7.14387625       6.02174104       6.59801597        0      -0.00043771      -0.00720074      -0.01159545
Na       8.92073047      10.27232251       7.01496108        0       0.01332560      -0.00499371       0.01055323
Na       8.55032735       9.83655835      10.24327541        0      -0.00732211       0.00860846       0.00576867
Na       9.75710924       6.80020679      10.33106364        0       0.00557566       0.00715902      -0.00504842
Na      10.13189667       7.22802395       7.10959533        0       0.00764854      -0.00298552      -0.00916182
