8
Lattice="16.0 0.0 0.0 0.0 16.0 0.0 0.0 0.0 16.0" Properties=species:S:1:pos:R:3:forces:R:3 unique_id=2688aa878543991b62093edaa50af5c3 key_value_pairs="_JSON {\"origin\": \"StartingCandidateUnrelaxed\", \"relaxed\": 1, \"generation\": 0, \"extinct\": 0, \"gaid\": 5, \"raw_score\": 7.280769388249624}" confid=5 relax_id=25 energy=-7.280769388249624 pbc="F F F"
Na       8.79636043       5.78359553       7.40275466       0.00026110       0.00208233      -0.00243834
Na       6.80360858       8.49849232      11.37973338       0.00435566       0.00641862       0.00913866
Na       9.93539036       7.85284399      10.11683756       0.00574249       0.00140960      -0.00101135
Na       7.76138442       5.21921263      10.43530590      -0.00311628      -0.00206479       0.00102949
Na       7.57151825      10.11486463       8.65465472      -0.00045595       0.00597416       0.00277320
Na      10.32085822       8.85044332       7.03668451       0.00390903      -0.00208352       0.00352924
Na       5.64170098       7.11305157       8.49282892      -0.00657250      -0.00917709      -0.01221265
Na       7.06382021       8.27798034       5.79631974      -0.00737313      -0.00472182      -0.00066006
