6
Lattice="16.0 0.0 0.0 0.0 16.0 0.0 0.0 0.0 16.0" Properties=species:S:1:pos:R:3:tags:I:1:forces:R:3:magmoms:R:1 energy=-4.933849714299354 dipole="0.004985405377182031 -0.013616657384290456 0.006902301884053175" magmom=0.0 free_energy=-4.933850566754335 pbc="F F F"
Na       8.35955156       4.24011932       7.96106390        0      -0.00324368       0.01099347       0.00268546       0.00000000
Na       8.52502798      10.20593965      10.79322467        1      -0.00271257      -0.00259746      -0.00252524       0.00000000
Na       7.18736581       9.97825346       7.78637356        2      -0.00228538      -0.00056520      -0.00634294       0.00000000
Na       8.45516244       7.17472173       9.48972610        3       0.00705652      -0.00912750       0.00075128       0.00000000
Na       5.90585109       9.47916216       4.78824284        4       0.00190002      -0.00107689       0.00050199       0.00000000
Na       7.09433903       6.77231843       6.25758126        5       0.00006518       0.00361284       0.00319087       0.00000000
