
  ___ ___ ___ _ _ _  
 |   |   |_  | | | | 
 | | | | | . | | | | 
 |__ |  _|___|_____|  22.8.0
 |___|_|             

User:   jesfra@vera32-3
Date:   Thu Feb 23 10:50:09 2023
Arch:   x86_64
Pid:    2986873
CWD:    /cephyr/users/jesfra/Vera/A4
Python: 3.10.4
gpaw:   /apps/Arch/software/GPAW/22.8.0-foss-2022a/lib/python3.10/site-packages/gpaw
_gpaw:  /apps/Arch/software/GPAW/22.8.0-foss-2022a/lib/python3.10/site-packages/
        _gpaw.cpython-310-x86_64-linux-gnu.so
ase:    /apps/Arch/software/ASE/3.22.1-foss-2022a/lib/python3.10/site-packages/ase (version 3.22.1)
numpy:  /apps/Arch/software/SciPy-bundle/2022.05-foss-2022a/lib/python3.10/site-packages/numpy (version 1.22.3)
scipy:  /apps/Arch/software/SciPy-bundle/2022.05-foss-2022a/lib/python3.10/site-packages/scipy (version 1.8.1)
libxc:  5.2.3
units:  Angstrom and eV
cores: 32
OpenMP: False
OMP_NUM_THREADS: 1

Input parameters:
  kpts: [4 4 1]
  mode: {ecut: 450.00000000000006,
         name: pw}
  xc: PBE

System changes: positions, numbers, cell, pbc, initial_charges, initial_magmoms 

Initialize ...

species:
  Au:
    name: Gold
    id: b12133f335f6ca0d89c4b1ccaa844e9a
    Z: 79.0
    valence: 11
    core: 68
    charge: 0.0
    file: /apps/Common/software/GPAW-setups/0.9.20000/Au.PBE.gz
    compensation charges: {type: gauss,
                           rc: 0.42,
                           lmax: 2}
    cutoffs: {filter: 2.33,
              core: 2.81}
    valence states:
      #              energy  rcut
      - 6s(1.00)    -5.728   1.323
      - 6p(0.00)    -0.775   1.323
      - 5d(10.00)    -6.891   1.323
      -  s          21.484   1.323
      -  p          26.436   1.323
      -  d          20.321   1.323
  
    # Using partial waves for Au as LCAO basis

Reference energy: -13948153.319951  # eV

Spin-paired calculation

Convergence criteria:
 Maximum [total energy] change in last 3 cyles: 0.0005 eV / electron
 Maximum integral of absolute [dens]ity change: 0.0001 electrons / valence electron
 Maximum integral of absolute [eigenst]ate change: 4e-08 eV^2 / valence electron
 Maximum number of scf [iter]ations: 333
 (Square brackets indicate name in SCF output, whereas a 'c' in
 the SCF output indicates the quantity has converged.)

Symmetries present (total): 6

  ( 1  0  0)  ( 1 -1  0)  ( 0  1  0)  ( 0 -1  0)  (-1  1  0)  (-1  0  0)
  ( 0  1  0)  ( 0 -1  0)  ( 1  0  0)  ( 1 -1  0)  (-1  0  0)  (-1  1  0)
  ( 0  0  1)  ( 0  0  1)  ( 0  0  1)  ( 0  0  1)  ( 0  0  1)  ( 0  0  1)
Note: your k-points are not as symmetric as your crystal!

16 k-points: 4 x 4 x 1 Monkhorst-Pack grid
6 k-points in the irreducible part of the Brillouin zone
       k-points in crystal coordinates                weights
   0:     0.12500000   -0.12500000    0.00000000          2/16
   1:     0.12500000    0.12500000    0.00000000          2/16
   2:     0.37500000   -0.37500000    0.00000000          2/16
   3:     0.37500000   -0.12500000    0.00000000          4/16
   4:     0.37500000    0.12500000    0.00000000          4/16
   5:     0.37500000    0.37500000    0.00000000          2/16

Wave functions: Plane wave expansion
  Cutoff energy: 450.000 eV
  Number of coefficients (min, max): 24805, 24847
  Pulay-stress correction: 0.000000 eV/Ang^3 (de/decut=0.000000)
  Using FFTW library
  ScaLapack parameters: grid=1x1, blocksize=None
  Wavefunction extrapolation:
    Improved wavefunction reuse through dual PAW basis 

Occupation numbers: Fermi-Dirac:
  width: 0.1000  # eV
 

Eigensolver
   Davidson(niter=2) 

Densities:
  Coarse grid: 45*45*84 grid
  Fine grid: 90*90*168 grid
  Total Charge: 0.000000 

Density mixing:
  Method: separate
  Backend: pulay
  Linear mixing parameter: 0.05
  old densities: 5
  Damping of long wavelength oscillations: 50 

Hamiltonian:
  XC and Coulomb potentials evaluated on a 90*90*168 grid
  Using the PBE Exchange-Correlation functional
  External potential:
    NoExternalPotential
 

XC parameters: PBE with 2 nearest neighbor stencil

Memory estimate:
  Process memory now: 295.68 MiB
  Calculator: 298.17 MiB
    Density: 4.60 MiB
      Arrays: 2.12 MiB
      Localized functions: 1.64 MiB
      Mixer: 0.85 MiB
    Hamiltonian: 1.42 MiB
      Arrays: 1.38 MiB
      XC: 0.00 MiB
      Poisson: 0.00 MiB
      vbar: 0.03 MiB
    Wavefunctions: 292.15 MiB
      Arrays psit_nG: 208.15 MiB
      Eigensolver: 76.39 MiB
      Projections: 0.25 MiB
      Projectors: 0.53 MiB
      PW-descriptor: 6.83 MiB

Total number of cores used: 32
Parallelization over k-points: 2
Domain decomposition: 2 x 2 x 4

Number of atoms: 27
Number of atomic orbitals: 243
Number of bands in calculation: 183
Number of valence electrons: 297
Bands to converge: occupied

... initialized

Initializing position-dependent things.

Density initialized from atomic densities
Creating initial wave functions:
  183 bands from LCAO basis set

                                              
                                              
                                              
                                              
                                              
                  Au     Au     Au            
                                              
            Au     AAu    AAu    Au           
       Au     Au     AAu    Au                
                                              
        Au     Au     AAu    Au     Au        
                                              
                 Au     Au     Au             
                                              
           Au      Au     Au                  
                                              
                                              
                                              
                                              

Positions:
   0 Au     1.477500    0.853035    6.000000    ( 0.0000,  0.0000,  0.0000)
   1 Au     4.432499    0.853035    6.000000    ( 0.0000,  0.0000,  0.0000)
   2 Au     7.387498    0.853035    6.000000    ( 0.0000,  0.0000,  0.0000)
   3 Au     2.954999    3.412139    6.000000    ( 0.0000,  0.0000,  0.0000)
   4 Au     5.909998    3.412139    6.000000    ( 0.0000,  0.0000,  0.0000)
   5 Au     8.864998    3.412139    6.000000    ( 0.0000,  0.0000,  0.0000)
   6 Au     4.432499    5.971244    6.000000    ( 0.0000,  0.0000,  0.0000)
   7 Au     7.387498    5.971244    6.000000    ( 0.0000,  0.0000,  0.0000)
   8 Au    10.342497    5.971244    6.000000    ( 0.0000,  0.0000,  0.0000)
   9 Au    -0.000000    1.706070    8.412747    ( 0.0000,  0.0000,  0.0000)
  10 Au     2.954999    1.706070    8.412747    ( 0.0000,  0.0000,  0.0000)
  11 Au     5.909998    1.706070    8.412747    ( 0.0000,  0.0000,  0.0000)
  12 Au     1.477500    4.265174    8.412747    ( 0.0000,  0.0000,  0.0000)
  13 Au     4.432499    4.265174    8.412747    ( 0.0000,  0.0000,  0.0000)
  14 Au     7.387498    4.265174    8.412747    ( 0.0000,  0.0000,  0.0000)
  15 Au     2.954999    6.824278    8.412747    ( 0.0000,  0.0000,  0.0000)
  16 Au     5.909998    6.824278    8.412747    ( 0.0000,  0.0000,  0.0000)
  17 Au     8.864998    6.824278    8.412747    ( 0.0000,  0.0000,  0.0000)
  18 Au     0.000000    0.000000   10.825494    ( 0.0000,  0.0000,  0.0000)
  19 Au     2.954999    0.000000   10.825494    ( 0.0000,  0.0000,  0.0000)
  20 Au     5.909998    0.000000   10.825494    ( 0.0000,  0.0000,  0.0000)
  21 Au     1.477500    2.559104   10.825494    ( 0.0000,  0.0000,  0.0000)
  22 Au     4.432499    2.559104   10.825494    ( 0.0000,  0.0000,  0.0000)
  23 Au     7.387498    2.559104   10.825494    ( 0.0000,  0.0000,  0.0000)
  24 Au     2.954999    5.118209   10.825494    ( 0.0000,  0.0000,  0.0000)
  25 Au     5.909998    5.118209   10.825494    ( 0.0000,  0.0000,  0.0000)
  26 Au     8.864998    5.118209   10.825494    ( 0.0000,  0.0000,  0.0000)

Unit cell:
           periodic     x           y           z      points  spacing
  1. axis:    yes    8.864998    0.000000    0.000000    45     0.1706
  2. axis:    yes    4.432499    7.677313    0.000000    45     0.1706
  3. axis:    no     0.000000    0.000000   16.825494    84     0.2003

  Lengths:   8.864998   8.864998  16.825494
  Angles:   90.000000  90.000000  60.000000

Effective grid spacing dv^(1/3) = 0.1888

     iter     time        total  log10-change:
                         energy  eigst   dens
iter:   1 10:50:22   -85.462363
iter:   2 10:50:25   -84.102137  -1.83  -1.35
iter:   3 10:50:28   -79.181384  -1.30  -1.37
iter:   4 10:50:32   -78.972704  -2.67  -1.78
iter:   5 10:50:35   -78.926519  -2.28  -1.86
iter:   6 10:50:38   -79.437309  -2.44  -2.12
iter:   7 10:50:41   -78.902117  -2.05  -2.01
iter:   8 10:50:45   -78.886885  -3.53  -2.48
iter:   9 10:50:48   -78.842411c -3.01  -2.49
iter:  10 10:50:51   -78.824707c -3.69  -2.81
iter:  11 10:50:54   -78.824721c -5.07  -3.39
iter:  12 10:50:58   -78.824691c -5.73  -3.39
iter:  13 10:51:01   -78.824516c -5.97  -3.39
iter:  14 10:51:04   -78.825528c -4.61  -3.47
iter:  15 10:51:07   -78.824917c -5.88  -3.55
iter:  16 10:51:11   -78.824444c -5.81  -3.88
iter:  17 10:51:14   -78.824332c -6.25  -3.98
iter:  18 10:51:17   -78.824296c -7.02  -4.05c
iter:  19 10:51:20   -78.824280c -6.73  -4.13c
iter:  20 10:51:24   -78.824252c -7.27  -4.32c
iter:  21 10:51:27   -78.824213c -7.12  -4.35c
iter:  22 10:51:30   -78.824224c -7.77c -4.48c

Converged after 22 iterations.

Dipole moment: (-0.120619, -0.069640, -0.000000) |e|*Ang

Energy contributions relative to reference atoms: (reference = -13948153.319951)

Kinetic:       -306.454901
Potential:     +247.494434
External:        +0.000000
XC:             -22.724204
Entropy (-ST):   -0.275322
Local:           +2.998108
--------------------------
Free energy:    -78.961885
Extrapolated:   -78.824224

Showing only first 2 kpts
 Kpt  Band  Eigenvalues  Occupancy
  0   146     -0.38541    1.99999
  0   147     -0.38541    1.99999
  0   148      0.31384    1.98655
  0   149      0.31384    1.98655

  1   146     -0.56309    2.00000
  1   147     -0.37474    1.99999
  1   148     -0.37474    1.99999
  1   149     -0.19060    1.99991


Fermi level: 0.81334

No gap

Forces in eV/Ang:
  0 Au   -0.00000   -0.00000   -0.04072
  1 Au   -0.00000   -0.00001   -0.04072
  2 Au    0.00000   -0.00000   -0.04072
  3 Au   -0.00001    0.00000   -0.04072
  4 Au    0.00001    0.00000   -0.04072
  5 Au    0.00000    0.00000   -0.04072
  6 Au   -0.00000    0.00001   -0.04072
  7 Au    0.00000   -0.00000   -0.04072
  8 Au   -0.00000   -0.00000   -0.04072
  9 Au    0.00000    0.00000   -0.00000
 10 Au   -0.00001   -0.00000    0.00000
 11 Au    0.00001   -0.00000    0.00000
 12 Au   -0.00001    0.00001    0.00000
 13 Au    0.00000    0.00001    0.00000
 14 Au    0.00001    0.00001    0.00000
 15 Au   -0.00000   -0.00000   -0.00000
 16 Au    0.00000   -0.00000   -0.00000
 17 Au    0.00000   -0.00001    0.00000
 18 Au    0.00000    0.00000    0.04072
 19 Au    0.00000   -0.00001    0.04072
 20 Au   -0.00000   -0.00001    0.04072
 21 Au   -0.00000    0.00000    0.04072
 22 Au   -0.00000    0.00000    0.04072
 23 Au    0.00000    0.00000    0.04072
 24 Au   -0.00001    0.00000    0.04072
 25 Au    0.00001    0.00000    0.04072
 26 Au   -0.00000    0.00000    0.04072

System changes: positions 

Initializing position-dependent things.

Density initialized from wave functions
                                              
                                              
                                              
                                              
                                              
                  Au     Au     Au            
            Au      Au     Au                 
                   Au     Au     Au           
       Au     Au     AAu    Au                
                                              
        Au     Au     AAu    Au     Au        
                                              
                 Au     Au     Au             
                                              
           Au      Au     Au                  
                                              
                                              
                                              
                                              

Positions:
   0 Au     1.477489    0.853029    5.905710    ( 0.0000,  0.0000,  0.0000)
   1 Au     4.432499    0.853021    5.905708    ( 0.0000,  0.0000,  0.0000)
   2 Au     7.387508    0.853029    5.905710    ( 0.0000,  0.0000,  0.0000)
   3 Au     2.954987    3.412146    5.905708    ( 0.0000,  0.0000,  0.0000)
   4 Au     5.910010    3.412146    5.905708    ( 0.0000,  0.0000,  0.0000)
   5 Au     8.864998    3.412144    5.905719    ( 0.0000,  0.0000,  0.0000)
   6 Au     4.432499    5.971255    5.905710    ( 0.0000,  0.0000,  0.0000)
   7 Au     7.387502    5.971241    5.905719    ( 0.0000,  0.0000,  0.0000)
   8 Au    10.342493    5.971241    5.905719    ( 0.0000,  0.0000,  0.0000)
   9 Au    -0.000000    1.706076    8.412740    ( 0.0000,  0.0000,  0.0000)
  10 Au     2.954983    1.706060    8.412751    ( 0.0000,  0.0000,  0.0000)
  11 Au     5.910015    1.706060    8.412751    ( 0.0000,  0.0000,  0.0000)
  12 Au     1.477475    4.265188    8.412750    ( 0.0000,  0.0000,  0.0000)
  13 Au     4.432499    4.265193    8.412751    ( 0.0000,  0.0000,  0.0000)
  14 Au     7.387523    4.265188    8.412750    ( 0.0000,  0.0000,  0.0000)
  15 Au     2.954994    6.824275    8.412740    ( 0.0000,  0.0000,  0.0000)
  16 Au     5.910004    6.824275    8.412740    ( 0.0000,  0.0000,  0.0000)
  17 Au     8.864998    6.824250    8.412750    ( 0.0000,  0.0000,  0.0000)
  18 Au     0.000000    0.000000   10.919785    ( 0.0000,  0.0000,  0.0000)
  19 Au     2.955003   -0.000012   10.919780    ( 0.0000,  0.0000,  0.0000)
  20 Au     5.909994   -0.000012   10.919780    ( 0.0000,  0.0000,  0.0000)
  21 Au     1.477491    2.559114   10.919780    ( 0.0000,  0.0000,  0.0000)
  22 Au     4.432499    2.559104   10.919792    ( 0.0000,  0.0000,  0.0000)
  23 Au     7.387506    2.559114   10.919780    ( 0.0000,  0.0000,  0.0000)
  24 Au     2.954987    5.118211   10.919780    ( 0.0000,  0.0000,  0.0000)
  25 Au     5.910011    5.118211   10.919780    ( 0.0000,  0.0000,  0.0000)
  26 Au     8.864998    5.118209   10.919772    ( 0.0000,  0.0000,  0.0000)

Unit cell:
           periodic     x           y           z      points  spacing
  1. axis:    yes    8.864998    0.000000    0.000000    45     0.1706
  2. axis:    yes    4.432499    7.677313    0.000000    45     0.1706
  3. axis:    no     0.000000    0.000000   16.825494    84     0.2003

  Lengths:   8.864998   8.864998  16.825494
  Angles:   90.000000  90.000000  60.000000

Effective grid spacing dv^(1/3) = 0.1888

     iter     time        total  log10-change:
                         energy  eigst   dens
iter:   1 10:51:34   -85.890837  -0.81
iter:   2 10:51:38   -81.944604  -2.38  -1.44
iter:   3 10:51:41   -78.770384  -1.39  -1.59
iter:   4 10:51:44   -78.758401  -2.81  -2.40
iter:   5 10:51:47   -78.752522c -3.71  -2.38
iter:   6 10:51:51   -78.709116c -3.61  -2.38
iter:   7 10:51:54   -78.749986c -2.77  -2.61
iter:   8 10:51:57   -78.743600c -3.97  -2.66
iter:   9 10:52:00   -78.792328c -3.73  -2.65
iter:  10 10:52:04   -78.695807c -2.95  -2.48
iter:  11 10:52:07   -78.696856c -4.31  -3.30
iter:  12 10:52:10   -78.694919c -4.60  -3.33
iter:  13 10:52:13   -78.694716c -5.09  -3.58
iter:  14 10:52:16   -78.694967c -5.38  -3.78
iter:  15 10:52:20   -78.695141c -5.72  -3.77
iter:  16 10:52:23   -78.694815c -5.16  -3.62
iter:  17 10:52:26   -78.694826c -6.65  -4.06c
iter:  18 10:52:29   -78.694829c -6.81  -4.19c
iter:  19 10:52:33   -78.694831c -6.60  -4.36c
iter:  20 10:52:36   -78.694819c -6.78  -4.38c
iter:  21 10:52:39   -78.694819c -7.91c -4.52c

Converged after 21 iterations.

Dipole moment: (-0.085443, -0.049331, 0.000000) |e|*Ang

Energy contributions relative to reference atoms: (reference = -13948153.319951)

Kinetic:       -347.034259
Potential:     +282.036950
External:        +0.000000
XC:             -16.457704
Entropy (-ST):   -0.251794
Local:           +2.886092
--------------------------
Free energy:    -78.820716
Extrapolated:   -78.694819

Showing only first 2 kpts
 Kpt  Band  Eigenvalues  Occupancy
  0   146     -0.43015    1.99998
  0   147     -0.43014    1.99998
  0   148      0.28973    1.97575
  0   149      0.28974    1.97574

  1   146     -0.63559    2.00000
  1   147     -0.42513    1.99998
  1   148     -0.42513    1.99998
  1   149     -0.23640    1.99987


Fermi level: 0.72974

No gap

Forces in eV/Ang:
  0 Au    0.00006    0.00003    0.18909
  1 Au    0.00000    0.00008    0.18917
  2 Au   -0.00006    0.00003    0.18909
  3 Au    0.00007   -0.00004    0.18917
  4 Au   -0.00007   -0.00004    0.18917
  5 Au   -0.00000   -0.00004    0.18906
  6 Au   -0.00000   -0.00006    0.18909
  7 Au   -0.00003    0.00002    0.18906
  8 Au    0.00003    0.00002    0.18906
  9 Au    0.00000   -0.00006    0.00003
 10 Au    0.00011    0.00006   -0.00002
 11 Au   -0.00011    0.00006   -0.00002
 12 Au    0.00018   -0.00010   -0.00002
 13 Au    0.00000   -0.00013   -0.00002
 14 Au   -0.00018   -0.00010   -0.00002
 15 Au    0.00005    0.00003    0.00003
 16 Au   -0.00005    0.00003    0.00003
 17 Au    0.00000    0.00021   -0.00002
 18 Au   -0.00000    0.00000   -0.18913
 19 Au   -0.00003    0.00007   -0.18911
 20 Au    0.00003    0.00007   -0.18911
 21 Au    0.00004   -0.00006   -0.18911
 22 Au    0.00000    0.00000   -0.18919
 23 Au   -0.00004   -0.00006   -0.18911
 24 Au    0.00008   -0.00000   -0.18911
 25 Au   -0.00008   -0.00000   -0.18911
 26 Au    0.00000    0.00000   -0.18900

System changes: positions 

Initializing position-dependent things.

Density initialized from wave functions
                                              
                                              
                                              
                                              
                                              
                  Au     Au     Au            
                                              
            Au     AAu    AAu    Au           
       Au     Au     AAu    Au                
                                              
        Au     Au     AAu    Au     Au        
                                              
                 Au     Au     Au             
                                              
           Au      Au     Au                  
                                              
                                              
                                              
                                              

Positions:
   0 Au     1.477504    0.853037    5.980162    ( 0.0000,  0.0000,  0.0000)
   1 Au     4.432499    0.853042    5.980176    ( 0.0000,  0.0000,  0.0000)
   2 Au     7.387494    0.853037    5.980162    ( 0.0000,  0.0000,  0.0000)
   3 Au     2.955006    3.412135    5.980176    ( 0.0000,  0.0000,  0.0000)
   4 Au     5.909992    3.412135    5.980176    ( 0.0000,  0.0000,  0.0000)
   5 Au     8.864998    3.412135    5.980160    ( 0.0000,  0.0000,  0.0000)
   6 Au     4.432499    5.971239    5.980162    ( 0.0000,  0.0000,  0.0000)
   7 Au     7.387494    5.971246    5.980160    ( 0.0000,  0.0000,  0.0000)
   8 Au    10.342501    5.971246    5.980160    ( 0.0000,  0.0000,  0.0000)
   9 Au    -0.000000    1.706062    8.412749    ( 0.0000,  0.0000,  0.0000)
  10 Au     2.955010    1.706076    8.412746    ( 0.0000,  0.0000,  0.0000)
  11 Au     5.909987    1.706076    8.412746    ( 0.0000,  0.0000,  0.0000)
  12 Au     1.477519    4.265163    8.412746    ( 0.0000,  0.0000,  0.0000)
  13 Au     4.432499    4.265161    8.412746    ( 0.0000,  0.0000,  0.0000)
  14 Au     7.387479    4.265163    8.412746    ( 0.0000,  0.0000,  0.0000)
  15 Au     2.955006    6.824282    8.412749    ( 0.0000,  0.0000,  0.0000)
  16 Au     5.909992    6.824282    8.412749    ( 0.0000,  0.0000,  0.0000)
  17 Au     8.864998    6.824301    8.412746    ( 0.0000,  0.0000,  0.0000)
  18 Au     0.000000    0.000000   10.845325    ( 0.0000,  0.0000,  0.0000)
  19 Au     2.954995    0.000006   10.845327    ( 0.0000,  0.0000,  0.0000)
  20 Au     5.910002    0.000006   10.845327    ( 0.0000,  0.0000,  0.0000)
  21 Au     1.477503    2.559098   10.845327    ( 0.0000,  0.0000,  0.0000)
  22 Au     4.432499    2.559104   10.845317    ( 0.0000,  0.0000,  0.0000)
  23 Au     7.387495    2.559098   10.845327    ( 0.0000,  0.0000,  0.0000)
  24 Au     2.955006    5.118209   10.845327    ( 0.0000,  0.0000,  0.0000)
  25 Au     5.909991    5.118209   10.845327    ( 0.0000,  0.0000,  0.0000)
  26 Au     8.864998    5.118209   10.845342    ( 0.0000,  0.0000,  0.0000)

Unit cell:
           periodic     x           y           z      points  spacing
  1. axis:    yes    8.864998    0.000000    0.000000    45     0.1706
  2. axis:    yes    4.432499    7.677313    0.000000    45     0.1706
  3. axis:    no     0.000000    0.000000   16.825494    84     0.2003

  Lengths:   8.864998   8.864998  16.825494
  Angles:   90.000000  90.000000  60.000000

Effective grid spacing dv^(1/3) = 0.1888

     iter     time        total  log10-change:
                         energy  eigst   dens
iter:   1 10:52:44   -82.260367  -1.12
iter:   2 10:52:47   -80.217165  -2.66  -1.60
iter:   3 10:52:50   -78.851946  -1.79  -1.77
iter:   4 10:52:54   -78.851461  -3.17  -2.50
iter:   5 10:52:57   -78.875200c -3.05  -2.52
iter:   6 10:53:01   -78.861612c -3.68  -2.58
iter:   7 10:53:04   -78.831103c -3.32  -2.93
iter:   8 10:53:07   -78.830731c -4.78  -3.25
iter:   9 10:53:10   -78.830104c -4.91  -3.51
iter:  10 10:53:14   -78.830044c -5.48  -3.68
iter:  11 10:53:17   -78.830082c -6.54  -4.00
iter:  12 10:53:20   -78.830064c -6.42  -4.02c
iter:  13 10:53:23   -78.830075c -6.83  -4.25c
iter:  14 10:53:27   -78.829980c -6.79  -4.61c
iter:  15 10:53:30   -78.829974c -7.68c -4.69c

Converged after 15 iterations.

Dipole moment: (-0.110573, -0.063839, 0.000000) |e|*Ang

Energy contributions relative to reference atoms: (reference = -13948153.319951)

Kinetic:       -317.131887
Potential:     +256.727365
External:        +0.000000
XC:             -21.264368
Entropy (-ST):   -0.271656
Local:           +2.974744
--------------------------
Free energy:    -78.965802
Extrapolated:   -78.829974

Showing only first 2 kpts
 Kpt  Band  Eigenvalues  Occupancy
  0   146     -0.39641    1.99999
  0   147     -0.39640    1.99999
  0   148      0.30758    1.98535
  0   149      0.30760    1.98535

  1   146     -0.57861    2.00000
  1   147     -0.38692    1.99999
  1   148     -0.38692    1.99999
  1   149     -0.20171    1.99991


Fermi level: 0.79852

No gap

Forces in eV/Ang:
  0 Au    0.00011    0.00006    0.01755
  1 Au    0.00000    0.00019    0.01748
  2 Au   -0.00011    0.00006    0.01755
  3 Au    0.00016   -0.00009    0.01748
  4 Au   -0.00016   -0.00009    0.01748
  5 Au   -0.00000   -0.00004    0.01755
  6 Au    0.00000   -0.00013    0.01755
  7 Au   -0.00003    0.00002    0.01755
  8 Au    0.00003    0.00002    0.01755
  9 Au   -0.00000   -0.00003    0.00002
 10 Au    0.00007    0.00004   -0.00001
 11 Au   -0.00007    0.00004   -0.00001
 12 Au    0.00007   -0.00004   -0.00001
 13 Au    0.00000   -0.00008   -0.00001
 14 Au   -0.00007   -0.00004   -0.00001
 15 Au    0.00002    0.00001    0.00002
 16 Au   -0.00002    0.00001    0.00002
 17 Au    0.00000    0.00008   -0.00001
 18 Au    0.00000    0.00000   -0.01747
 19 Au   -0.00004    0.00014   -0.01752
 20 Au    0.00004    0.00014   -0.01752
 21 Au    0.00010   -0.00010   -0.01752
 22 Au   -0.00000    0.00000   -0.01751
 23 Au   -0.00010   -0.00010   -0.01752
 24 Au    0.00014   -0.00004   -0.01752
 25 Au   -0.00014   -0.00004   -0.01752
 26 Au   -0.00000    0.00000   -0.01761

System changes: positions 

Initializing position-dependent things.

Density initialized from wave functions
                                              
                                              
                                              
                                              
                                              
                  Au     Au     Au            
            Au     AAu    AAu    Au           
                                              
       Au     Au     AAu    Au                
                      Au     Au     Au        
        Au     Au      Au                     
                 Au     Au     Au             
                                              
           Au      Au     Au                  
                                              
                                              
                                              
                                              

Positions:
   0 Au     1.477201    0.852862    6.190175    ( 0.0000,  0.0000,  0.0000)
   1 Au     4.432499    0.852542    6.189748    ( 0.0000,  0.0000,  0.0000)
   2 Au     7.387797    0.852862    6.190175    ( 0.0000,  0.0000,  0.0000)
   3 Au     2.954572    3.412386    6.189748    ( 0.0000,  0.0000,  0.0000)
   4 Au     5.910426    3.412386    6.189748    ( 0.0000,  0.0000,  0.0000)
   5 Au     8.864998    3.412354    6.190297    ( 0.0000,  0.0000,  0.0000)
   6 Au     4.432499    5.971589    6.190175    ( 0.0000,  0.0000,  0.0000)
   7 Au     7.387684    5.971136    6.190297    ( 0.0000,  0.0000,  0.0000)
   8 Au    10.342311    5.971136    6.190297    ( 0.0000,  0.0000,  0.0000)
   9 Au    -0.000000    1.706391    8.412628    ( 0.0000,  0.0000,  0.0000)
  10 Au     2.954470    1.705764    8.412811    ( 0.0000,  0.0000,  0.0000)
  11 Au     5.910528    1.705764    8.412811    ( 0.0000,  0.0000,  0.0000)
  12 Au     1.476628    4.265677    8.412809    ( 0.0000,  0.0000,  0.0000)
  13 Au     4.432499    4.265785    8.412811    ( 0.0000,  0.0000,  0.0000)
  14 Au     7.388370    4.265677    8.412809    ( 0.0000,  0.0000,  0.0000)
  15 Au     2.954721    6.824118    8.412628    ( 0.0000,  0.0000,  0.0000)
  16 Au     5.910277    6.824118    8.412628    ( 0.0000,  0.0000,  0.0000)
  17 Au     8.864998    6.823272    8.412809    ( 0.0000,  0.0000,  0.0000)
  18 Au    -0.000000    0.000000   10.635454    ( 0.0000,  0.0000,  0.0000)
  19 Au     2.955191   -0.000380   10.635416    ( 0.0000,  0.0000,  0.0000)
  20 Au     5.909806   -0.000380   10.635416    ( 0.0000,  0.0000,  0.0000)
  21 Au     1.477267    2.559461   10.635416    ( 0.0000,  0.0000,  0.0000)
  22 Au     4.432499    2.559104   10.635815    ( 0.0000,  0.0000,  0.0000)
  23 Au     7.387731    2.559461   10.635416    ( 0.0000,  0.0000,  0.0000)
  24 Au     2.954574    5.118232   10.635416    ( 0.0000,  0.0000,  0.0000)
  25 Au     5.910423    5.118232   10.635416    ( 0.0000,  0.0000,  0.0000)
  26 Au     8.864998    5.118209   10.634922    ( 0.0000,  0.0000,  0.0000)

Unit cell:
           periodic     x           y           z      points  spacing
  1. axis:    yes    8.864998    0.000000    0.000000    45     0.1706
  2. axis:    yes    4.432499    7.677313    0.000000    45     0.1706
  3. axis:    no     0.000000    0.000000   16.825494    84     0.2003

  Lengths:   8.864998   8.864998  16.825494
  Angles:   90.000000  90.000000  60.000000

Effective grid spacing dv^(1/3) = 0.1888

     iter     time        total  log10-change:
                         energy  eigst   dens
iter:   1 10:53:34  -101.778824  -0.24
iter:   2 10:53:37   -84.823227  -1.61  -1.17
iter:   3 10:53:41   -77.761017  -1.15  -1.39
iter:   4 10:53:44   -77.499890  -1.70  -1.87
iter:   5 10:53:47   -77.447087  -2.36  -2.09
iter:   6 10:53:50   -77.487766c -3.13  -2.40
iter:   7 10:53:54   -77.514261c -2.11  -2.43
iter:   8 10:53:57   -77.336859  -3.15  -2.50
iter:   9 10:54:00   -77.334383  -4.42  -3.13
iter:  10 10:54:03   -77.331239c -4.41  -3.24
iter:  11 10:54:07   -77.330635c -5.06  -3.53
iter:  12 10:54:10   -77.330687c -5.81  -3.58
iter:  13 10:54:13   -77.330430c -5.07  -3.57
iter:  14 10:54:16   -77.330429c -6.20  -3.54
iter:  15 10:54:20   -77.330353c -6.15  -3.54
iter:  16 10:54:23   -77.330284c -6.39  -3.61
iter:  17 10:54:26   -77.330548c -5.55  -3.59
iter:  18 10:54:30   -77.330598c -6.41  -3.60
iter:  19 10:54:33   -77.330638c -5.42  -3.63
iter:  20 10:54:36   -77.330712c -6.83  -3.95
iter:  21 10:54:39   -77.330652c -6.24  -3.96
iter:  22 10:54:43   -77.330383c -6.04  -4.04c
iter:  23 10:54:46   -77.330307c -6.55  -4.16c
iter:  24 10:54:49   -77.330268c -7.03  -4.24c
iter:  25 10:54:52   -77.330282c -6.97  -4.42c
iter:  26 10:54:56   -77.330284c -8.09c -4.95c

Converged after 26 iterations.

Dipole moment: (-0.200662, -0.115852, 0.000013) |e|*Ang

Energy contributions relative to reference atoms: (reference = -13948153.319951)

Kinetic:       -178.298302
Potential:     +137.843367
External:        +0.000000
XC:             -40.053719
Entropy (-ST):   -0.270793
Local:           +3.313766
--------------------------
Free energy:    -77.465680
Extrapolated:   -77.330284

Showing only first 2 kpts
 Kpt  Band  Eigenvalues  Occupancy
  0   146     -0.24185    1.99998
  0   147     -0.23179    1.99998
  0   148      0.39950    1.99000
  0   149      0.39959    1.98999

  1   146     -0.40900    2.00000
  1   147     -0.22557    1.99998
  1   148     -0.22553    1.99998
  1   149     -0.05644    1.99989


Fermi level: 0.92881

No gap

Forces in eV/Ang:
  0 Au    0.00160    0.00093   -0.95993
  1 Au    0.00000    0.00332   -0.95186
  2 Au   -0.00160    0.00093   -0.95993
  3 Au    0.00287   -0.00166   -0.95186
  4 Au   -0.00287   -0.00166   -0.95186
  5 Au   -0.00000   -0.00213   -0.96333
  6 Au    0.00000   -0.00185   -0.95993
  7 Au   -0.00184    0.00106   -0.96333
  8 Au    0.00184    0.00106   -0.96333
  9 Au    0.00000   -0.00340    0.00271
 10 Au    0.00681    0.00393   -0.00134
 11 Au   -0.00681    0.00393   -0.00134
 12 Au    0.01065   -0.00615   -0.00173
 13 Au    0.00000   -0.00786   -0.00134
 14 Au   -0.01065   -0.00615   -0.00173
 15 Au    0.00294    0.00170    0.00271
 16 Au   -0.00294    0.00170    0.00271
 17 Au    0.00000    0.01230   -0.00173
 18 Au    0.00000    0.00000    0.95521
 19 Au   -0.00058    0.00264    0.95833
 20 Au    0.00058    0.00264    0.95833
 21 Au    0.00200   -0.00183    0.95833
 22 Au    0.00000    0.00000    0.95135
 23 Au   -0.00200   -0.00183    0.95833
 24 Au    0.00258   -0.00082    0.95833
 25 Au   -0.00258   -0.00082    0.95833
 26 Au   -0.00000   -0.00000    0.96952

System changes: positions 

Initializing position-dependent things.

Density initialized from wave functions
                                              
                                              
                                              
                                              
                                              
                  Au     Au     Au            
                                              
            Au     AAu    AAu    Au           
       Au     Au     AAu    Au                
                                              
        Au     Au     AAu    Au     Au        
                                              
                 Au     Au     Au             
                                              
           Au      Au     Au                  
                                              
                                              
                                              
                                              

Positions:
   0 Au     1.477512    0.853042    5.986236    ( 0.0000,  0.0000,  0.0000)
   1 Au     4.432499    0.853056    5.986240    ( 0.0000,  0.0000,  0.0000)
   2 Au     7.387486    0.853042    5.986236    ( 0.0000,  0.0000,  0.0000)
   3 Au     2.955017    3.412129    5.986240    ( 0.0000,  0.0000,  0.0000)
   4 Au     5.909980    3.412129    5.986240    ( 0.0000,  0.0000,  0.0000)
   5 Au     8.864998    3.412133    5.986234    ( 0.0000,  0.0000,  0.0000)
   6 Au     4.432499    5.971229    5.986236    ( 0.0000,  0.0000,  0.0000)
   7 Au     7.387492    5.971247    5.986234    ( 0.0000,  0.0000,  0.0000)
   8 Au    10.342503    5.971247    5.986234    ( 0.0000,  0.0000,  0.0000)
   9 Au    -0.000000    1.706062    8.412750    ( 0.0000,  0.0000,  0.0000)
  10 Au     2.955013    1.706078    8.412745    ( 0.0000,  0.0000,  0.0000)
  11 Au     5.909984    1.706078    8.412745    ( 0.0000,  0.0000,  0.0000)
  12 Au     1.477520    4.265162    8.412745    ( 0.0000,  0.0000,  0.0000)
  13 Au     4.432499    4.265158    8.412745    ( 0.0000,  0.0000,  0.0000)
  14 Au     7.387477    4.265162    8.412745    ( 0.0000,  0.0000,  0.0000)
  15 Au     2.955006    6.824282    8.412750    ( 0.0000,  0.0000,  0.0000)
  16 Au     5.909991    6.824282    8.412750    ( 0.0000,  0.0000,  0.0000)
  17 Au     8.864998    6.824303    8.412745    ( 0.0000,  0.0000,  0.0000)
  18 Au     0.000000    0.000000   10.839260    ( 0.0000,  0.0000,  0.0000)
  19 Au     2.954993    0.000016   10.839257    ( 0.0000,  0.0000,  0.0000)
  20 Au     5.910005    0.000016   10.839257    ( 0.0000,  0.0000,  0.0000)
  21 Au     1.477510    2.559091   10.839257    ( 0.0000,  0.0000,  0.0000)
  22 Au     4.432499    2.559104   10.839250    ( 0.0000,  0.0000,  0.0000)
  23 Au     7.387488    2.559091   10.839257    ( 0.0000,  0.0000,  0.0000)
  24 Au     2.955016    5.118207   10.839257    ( 0.0000,  0.0000,  0.0000)
  25 Au     5.909982    5.118207   10.839257    ( 0.0000,  0.0000,  0.0000)
  26 Au     8.864998    5.118209   10.839261    ( 0.0000,  0.0000,  0.0000)

Unit cell:
           periodic     x           y           z      points  spacing
  1. axis:    yes    8.864998    0.000000    0.000000    45     0.1706
  2. axis:    yes    4.432499    7.677313    0.000000    45     0.1706
  3. axis:    no     0.000000    0.000000   16.825494    84     0.2003

  Lengths:   8.864998   8.864998  16.825494
  Angles:   90.000000  90.000000  60.000000

Effective grid spacing dv^(1/3) = 0.1888

     iter     time        total  log10-change:
                         energy  eigst   dens
iter:   1 10:55:00  -120.709350  +0.04
iter:   2 10:55:03   -98.558083  -1.42  -1.06
iter:   3 10:55:07   -79.257753  -0.54  -1.21
iter:   4 10:55:10   -79.143860  -2.06  -2.02
iter:   5 10:55:13   -79.144156c -2.88  -2.00
iter:   6 10:55:16   -79.142828c -3.53  -1.99
iter:   7 10:55:19   -79.145921c -3.98  -1.99
iter:   8 10:55:23   -79.187090c -2.27  -1.98
iter:   9 10:55:26   -80.086195  -2.02  -1.92
iter:  10 10:55:29   -79.088262  -1.41  -1.71
iter:  11 10:55:32   -78.980013  -2.69  -2.32
iter:  12 10:55:36   -78.927750  -2.27  -2.42
iter:  13 10:55:39   -78.830469  -3.03  -2.32
iter:  14 10:55:42   -78.830324c -4.08  -3.11
iter:  15 10:55:45   -78.830335c -4.76  -3.21
iter:  16 10:55:49   -78.830467c -5.19  -3.25
iter:  17 10:55:52   -78.832163c -4.31  -3.32
iter:  18 10:55:55   -78.830933c -5.39  -3.23
iter:  19 10:55:58   -78.830381c -5.21  -3.35
iter:  20 10:56:02   -78.830337c -5.87  -3.63
iter:  21 10:56:05   -78.830350c -6.04  -3.69
iter:  22 10:56:08   -78.830334c -6.35  -3.80
iter:  23 10:56:11   -78.830365c -6.16  -3.95
iter:  24 10:56:15   -78.830285c -6.36  -4.11c
iter:  25 10:56:18   -78.830338c -6.35  -3.93
iter:  26 10:56:21   -78.830346c -6.95  -4.25c
iter:  27 10:56:24   -78.830324c -7.41c -4.38c

Converged after 27 iterations.

Dipole moment: (-0.115607, -0.066746, -0.000000) |e|*Ang

Energy contributions relative to reference atoms: (reference = -13948153.319951)

Kinetic:       -314.014960
Potential:     +254.065655
External:        +0.000000
XC:             -21.720686
Entropy (-ST):   -0.272891
Local:           +2.976113
--------------------------
Free energy:    -78.966769
Extrapolated:   -78.830324

Showing only first 2 kpts
 Kpt  Band  Eigenvalues  Occupancy
  0   146     -0.39258    1.99999
  0   147     -0.39257    1.99999
  0   148      0.30995    1.98577
  0   149      0.30995    1.98577

  1   146     -0.57348    2.00000
  1   147     -0.38273    1.99999
  1   148     -0.38273    1.99999
  1   149     -0.19786    1.99991


Fermi level: 0.80379

No gap

Forces in eV/Ang:
  0 Au   -0.00005   -0.00003    0.00184
  1 Au   -0.00000   -0.00006    0.00164
  2 Au    0.00005   -0.00003    0.00184
  3 Au   -0.00005    0.00003    0.00164
  4 Au    0.00005    0.00003    0.00164
  5 Au   -0.00000    0.00002    0.00207
  6 Au   -0.00000    0.00006    0.00184
  7 Au    0.00002   -0.00001    0.00207
  8 Au   -0.00002   -0.00001    0.00207
  9 Au    0.00000    0.00010   -0.00005
 10 Au   -0.00020   -0.00012    0.00003
 11 Au    0.00020   -0.00012    0.00003
 12 Au   -0.00028    0.00016    0.00001
 13 Au   -0.00000    0.00023    0.00003
 14 Au    0.00028    0.00016    0.00001
 15 Au   -0.00009   -0.00005   -0.00005
 16 Au    0.00009   -0.00005   -0.00005
 17 Au   -0.00000   -0.00033    0.00001
 18 Au   -0.00000    0.00000   -0.00183
 19 Au    0.00003   -0.00002   -0.00185
 20 Au   -0.00003   -0.00002   -0.00185
 21 Au   -0.00001    0.00003   -0.00185
 22 Au    0.00000    0.00000   -0.00147
 23 Au    0.00001    0.00003   -0.00185
 24 Au   -0.00003   -0.00001   -0.00185
 25 Au    0.00003   -0.00001   -0.00185
 26 Au    0.00000    0.00000   -0.00220

Writing to Au.gpw (mode='')


  ___ ___ ___ _ _ _  
 |   |   |_  | | | | 
 | | | | | . | | | | 
 |__ |  _|___|_____|  22.8.0
 |___|_|             

User:   jesfra@vera32-3
Date:   Thu Feb 23 10:56:25 2023
Arch:   x86_64
Pid:    2986873
CWD:    /cephyr/users/jesfra/Vera/A4
Python: 3.10.4
gpaw:   /apps/Arch/software/GPAW/22.8.0-foss-2022a/lib/python3.10/site-packages/gpaw
_gpaw:  /apps/Arch/software/GPAW/22.8.0-foss-2022a/lib/python3.10/site-packages/
        _gpaw.cpython-310-x86_64-linux-gnu.so
ase:    /apps/Arch/software/ASE/3.22.1-foss-2022a/lib/python3.10/site-packages/ase (version 3.22.1)
numpy:  /apps/Arch/software/SciPy-bundle/2022.05-foss-2022a/lib/python3.10/site-packages/numpy (version 1.22.3)
scipy:  /apps/Arch/software/SciPy-bundle/2022.05-foss-2022a/lib/python3.10/site-packages/scipy (version 1.8.1)
libxc:  5.2.3
units:  Angstrom and eV
cores: 32
OpenMP: False
OMP_NUM_THREADS: 1

Input parameters:
  kpts: [4 4 1]
  mode: {ecut: 450.00000000000006,
         name: pw}
  xc: PBE

Timing:                                      incl.     excl.
-------------------------------------------------------------------
Density initialized from wave functions:     1.210     0.943   0.3% |
 Symmetrize density:                         0.267     0.267   0.1% |
Forces:                                      3.261     3.261   0.9% |
Hamiltonian:                                 0.962     0.023   0.0% |
 Atomic:                                     0.001     0.001   0.0% |
  XC Correction:                             0.000     0.000   0.0% |
 Calculate atomic Hamiltonians:              0.221     0.221   0.1% |
 Communicate:                                0.440     0.440   0.1% |
 Initialize Hamiltonian:                     0.000     0.000   0.0% |
 Poisson:                                    0.004     0.004   0.0% |
 XC 3D grid:                                 0.272     0.272   0.1% |
LCAO initialization:                         5.930     0.062   0.0% |
 LCAO eigensolver:                           0.415     0.002   0.0% |
  Calculate projections:                     0.000     0.000   0.0% |
  DenseAtomicCorrection:                     0.000     0.000   0.0% |
  Distribute overlap matrix:                 0.294     0.294   0.1% |
  Orbital Layouts:                           0.097     0.097   0.0% |
  Potential matrix:                          0.014     0.014   0.0% |
  Sum over cells:                            0.007     0.007   0.0% |
 LCAO to grid:                               5.239     5.239   1.4% ||
 Set positions (LCAO WFS):                   0.215     0.164   0.0% |
  Basic WFS set positions:                   0.004     0.004   0.0% |
  Basis functions set positions:             0.000     0.000   0.0% |
  P tci:                                     0.001     0.001   0.0% |
  ST tci:                                    0.020     0.020   0.0% |
  mktci:                                     0.026     0.026   0.0% |
PWDescriptor:                                0.339     0.339   0.1% |
Redistribute:                                0.004     0.004   0.0% |
SCF-cycle:                                 361.606     1.592   0.4% |
 Davidson:                                 307.098    52.334  13.9% |-----|
  Apply H:                                  31.589    30.795   8.2% |--|
   HMM T:                                    0.794     0.794   0.2% |
  Subspace diag:                            50.461     0.046   0.0% |
   calc_h_matrix:                           38.135     4.495   1.2% |
    Apply H:                                33.640    32.809   8.7% |--|
     HMM T:                                  0.831     0.831   0.2% |
   diagonalize:                              5.359     5.359   1.4% ||
   rotate_psi:                               6.920     6.920   1.8% ||
  calc. matrices:                           92.699    30.139   8.0% |--|
   Apply H:                                 62.561    60.993  16.2% |-----|
    HMM T:                                   1.568     1.568   0.4% |
  diagonalize:                              65.698    65.698  17.5% |------|
  rotate_psi:                               14.316    14.316   3.8% |-|
 Density:                                   32.778     0.003   0.0% |
  Atomic density matrices:                   0.433     0.433   0.1% |
  Mix:                                       7.729     7.729   2.1% ||
  Multipole moments:                         0.020     0.020   0.0% |
  Pseudo density:                           24.593    17.487   4.6% |-|
   Symmetrize density:                       7.105     7.105   1.9% ||
 Hamiltonian:                               19.263     0.414   0.1% |
  Atomic:                                    0.025     0.024   0.0% |
   XC Correction:                            0.000     0.000   0.0% |
  Calculate atomic Hamiltonians:             4.897     4.897   1.3% ||
  Communicate:                               7.992     7.992   2.1% ||
  Poisson:                                   0.057     0.057   0.0% |
  XC 3D grid:                                5.878     5.878   1.6% ||
 Orthonormalize:                             0.875     0.003   0.0% |
  calc_s_matrix:                             0.095     0.095   0.0% |
  inverse-cholesky:                          0.107     0.107   0.0% |
  projections:                               0.505     0.505   0.1% |
  rotate_psi_s:                              0.165     0.165   0.0% |
Set symmetry:                                0.003     0.003   0.0% |
Other:                                       3.080     3.080   0.8% |
-------------------------------------------------------------------
Total:                                               376.395 100.0%

Memory usage: 399.21 MiB
Date: Thu Feb 23 10:56:25 2023
System changes: positions, numbers, cell, pbc, initial_charges, initial_magmoms 

Initialize ...

species:
  Pt:
    name: Platinum
    id: 5ed695806aff0c961dba1a84acd7f4b2
    Z: 78.0
    valence: 16
    core: 62
    charge: 0.0
    file: /apps/Common/software/GPAW-setups/0.9.20000/Pt.PBE.gz
    compensation charges: {type: gauss,
                           rc: 0.41,
                           lmax: 2}
    cutoffs: {filter: 2.26,
              core: 2.26}
    valence states:
      #              energy  rcut
      - 6s(1.00)    -5.628   1.307
      - 5p(6.00)   -56.051   1.371
      - 6p(0.00)    -0.845   1.371
      - 5d(9.00)    -6.153   1.307
      -  s          21.583   1.307
      -  d          21.058   1.307
  
    # Using partial waves for Pt as LCAO basis

Reference energy: -13510134.794721  # eV

Spin-paired calculation

Convergence criteria:
 Maximum [total energy] change in last 3 cyles: 0.0005 eV / electron
 Maximum integral of absolute [dens]ity change: 0.0001 electrons / valence electron
 Maximum integral of absolute [eigenst]ate change: 4e-08 eV^2 / valence electron
 Maximum number of scf [iter]ations: 333
 (Square brackets indicate name in SCF output, whereas a 'c' in
 the SCF output indicates the quantity has converged.)

Symmetries present (total): 6

  ( 1  0  0)  ( 1 -1  0)  ( 0  1  0)  ( 0 -1  0)  (-1  1  0)  (-1  0  0)
  ( 0  1  0)  ( 0 -1  0)  ( 1  0  0)  ( 1 -1  0)  (-1  0  0)  (-1  1  0)
  ( 0  0  1)  ( 0  0  1)  ( 0  0  1)  ( 0  0  1)  ( 0  0  1)  ( 0  0  1)
Note: your k-points are not as symmetric as your crystal!

16 k-points: 4 x 4 x 1 Monkhorst-Pack grid
6 k-points in the irreducible part of the Brillouin zone
       k-points in crystal coordinates                weights
   0:     0.12500000   -0.12500000    0.00000000          2/16
   1:     0.12500000    0.12500000    0.00000000          2/16
   2:     0.37500000   -0.37500000    0.00000000          2/16
   3:     0.37500000   -0.12500000    0.00000000          4/16
   4:     0.37500000    0.12500000    0.00000000          4/16
   5:     0.37500000    0.37500000    0.00000000          2/16

Wave functions: Plane wave expansion
  Cutoff energy: 450.000 eV
  Number of coefficients (min, max): 22050, 22099
  Pulay-stress correction: 0.000000 eV/Ang^3 (de/decut=0.000000)
  Using FFTW library
  ScaLapack parameters: grid=1x1, blocksize=None
  Wavefunction extrapolation:
    Improved wavefunction reuse through dual PAW basis 

Occupation numbers: Fermi-Dirac:
  width: 0.1000  # eV
 

Eigensolver
   Davidson(niter=2) 

Densities:
  Coarse grid: 42*42*84 grid
  Fine grid: 84*84*168 grid
  Total Charge: 0.000000 

Density mixing:
  Method: separate
  Backend: pulay
  Linear mixing parameter: 0.05
  old densities: 5
  Damping of long wavelength oscillations: 50 

Hamiltonian:
  XC and Coulomb potentials evaluated on a 84*84*168 grid
  Using the PBE Exchange-Correlation functional
  External potential:
    NoExternalPotential
 

XC parameters: PBE with 2 nearest neighbor stencil

Memory estimate:
  Process memory now: 399.21 MiB
  Calculator: 380.44 MiB
    Density: 4.00 MiB
      Arrays: 1.84 MiB
      Localized functions: 1.46 MiB
      Mixer: 0.71 MiB
    Hamiltonian: 1.23 MiB
      Arrays: 1.20 MiB
      XC: 0.00 MiB
      Poisson: 0.00 MiB
      vbar: 0.03 MiB
    Wavefunctions: 375.21 MiB
      Arrays psit_nG: 267.07 MiB
      Eigensolver: 101.35 MiB
      Projections: 0.37 MiB
      Projectors: 0.47 MiB
      PW-descriptor: 5.95 MiB

Total number of cores used: 32
Parallelization over k-points: 2
Domain decomposition: 2 x 2 x 4

Number of atoms: 27
Number of atomic orbitals: 324
Number of bands in calculation: 264
Number of valence electrons: 432
Bands to converge: occupied

... initialized

Initializing position-dependent things.

Density initialized from atomic densities
Creating initial wave functions:
  264 bands from LCAO basis set

                                            
                                            
                                            
                                            
                                            
                 Pt     Pt     Pt           
            Pt     Pt     Pt                
       Pt     Pt  Pt Pt  Pt    Pt           
             Pt     Pt     Pt               
        Pt     Pt     Pt                    
                     Pt     Pt    Pt        
                Pt     Pt     Pt            
                                            
           Pt     Pt     Pt                 
                                            
                                            
                                            
                                            

Positions:
   0 Pt     1.403253    0.810169    6.000000    ( 0.0000,  0.0000,  0.0000)
   1 Pt     4.209760    0.810169    6.000000    ( 0.0000,  0.0000,  0.0000)
   2 Pt     7.016267    0.810169    6.000000    ( 0.0000,  0.0000,  0.0000)
   3 Pt     2.806507    3.240675    6.000000    ( 0.0000,  0.0000,  0.0000)
   4 Pt     5.613014    3.240675    6.000000    ( 0.0000,  0.0000,  0.0000)
   5 Pt     8.419520    3.240675    6.000000    ( 0.0000,  0.0000,  0.0000)
   6 Pt     4.209760    5.671181    6.000000    ( 0.0000,  0.0000,  0.0000)
   7 Pt     7.016267    5.671181    6.000000    ( 0.0000,  0.0000,  0.0000)
   8 Pt     9.822774    5.671181    6.000000    ( 0.0000,  0.0000,  0.0000)
   9 Pt    -0.000000    1.620337    8.291503    ( 0.0000,  0.0000,  0.0000)
  10 Pt     2.806507    1.620337    8.291503    ( 0.0000,  0.0000,  0.0000)
  11 Pt     5.613014    1.620337    8.291503    ( 0.0000,  0.0000,  0.0000)
  12 Pt     1.403253    4.050844    8.291503    ( 0.0000,  0.0000,  0.0000)
  13 Pt     4.209760    4.050844    8.291503    ( 0.0000,  0.0000,  0.0000)
  14 Pt     7.016267    4.050844    8.291503    ( 0.0000,  0.0000,  0.0000)
  15 Pt     2.806507    6.481350    8.291503    ( 0.0000,  0.0000,  0.0000)
  16 Pt     5.613014    6.481350    8.291503    ( 0.0000,  0.0000,  0.0000)
  17 Pt     8.419520    6.481350    8.291503    ( 0.0000,  0.0000,  0.0000)
  18 Pt     0.000000    0.000000   10.583006    ( 0.0000,  0.0000,  0.0000)
  19 Pt     2.806507    0.000000   10.583006    ( 0.0000,  0.0000,  0.0000)
  20 Pt     5.613014    0.000000   10.583006    ( 0.0000,  0.0000,  0.0000)
  21 Pt     1.403253    2.430506   10.583006    ( 0.0000,  0.0000,  0.0000)
  22 Pt     4.209760    2.430506   10.583006    ( 0.0000,  0.0000,  0.0000)
  23 Pt     7.016267    2.430506   10.583006    ( 0.0000,  0.0000,  0.0000)
  24 Pt     2.806507    4.861012   10.583006    ( 0.0000,  0.0000,  0.0000)
  25 Pt     5.613014    4.861012   10.583006    ( 0.0000,  0.0000,  0.0000)
  26 Pt     8.419520    4.861012   10.583006    ( 0.0000,  0.0000,  0.0000)

Unit cell:
           periodic     x           y           z      points  spacing
  1. axis:    yes    8.419520    0.000000    0.000000    42     0.1736
  2. axis:    yes    4.209760    7.291519    0.000000    42     0.1736
  3. axis:    no     0.000000    0.000000   16.583006    84     0.1974

  Lengths:   8.419520   8.419520  16.583006
  Angles:   90.000000  90.000000  60.000000

Effective grid spacing dv^(1/3) = 0.1901

     iter     time        total  log10-change:
                         energy  eigst   dens
iter:   1 10:56:46  -172.676304
iter:   2 10:56:52  -170.438570  -1.23  -1.42
iter:   3 10:56:57  -166.048440  -1.78  -1.46
iter:   4 10:57:02  -162.144798  -1.36  -1.59
iter:   5 10:57:07  -162.490581  -2.18  -2.00
iter:   6 10:57:12  -162.043720  -2.72  -2.08
iter:   7 10:57:17  -161.870984  -3.11  -2.23
iter:   8 10:57:22  -161.862264c -3.80  -2.31
iter:   9 10:57:27  -161.830876c -2.87  -2.34
iter:  10 10:57:32  -161.840774c -3.32  -2.91
iter:  11 10:57:37  -161.829681c -4.16  -2.95
iter:  12 10:57:42  -161.831433c -4.73  -3.15
iter:  13 10:57:47  -161.831762c -4.94  -3.08
iter:  14 10:57:52  -161.832936c -4.73  -3.09
iter:  15 10:57:57  -161.831293c -4.76  -3.05
iter:  16 10:58:02  -161.828869c -5.13  -3.14
iter:  17 10:58:07  -161.829372c -6.40  -3.22
iter:  18 10:58:12  -161.833239c -4.73  -3.26
iter:  19 10:58:17  -161.833197c -5.60  -3.83
iter:  20 10:58:22  -161.833069c -6.00  -3.89
iter:  21 10:58:27  -161.832870c -5.79  -3.94
iter:  22 10:58:32  -161.832712c -6.24  -3.94
iter:  23 10:58:37  -161.832512c -6.47  -4.06c
iter:  24 10:58:42  -161.832230c -6.91  -4.27c
iter:  25 10:58:47  -161.832058c -7.26  -4.33c
iter:  26 10:58:52  -161.832046c -7.55c -4.48c

Converged after 26 iterations.

Dipole moment: (-0.177480, -0.102468, 0.000228) |e|*Ang

Energy contributions relative to reference atoms: (reference = -13510134.794721)

Kinetic:       -311.549351
Potential:     +239.838239
External:        +0.000000
XC:             -74.561161
Entropy (-ST):   -1.819290
Local:          -14.650128
--------------------------
Free energy:   -162.741691
Extrapolated:  -161.832046

Showing only first 2 kpts
 Kpt  Band  Eigenvalues  Occupancy
  0   214      1.27176    1.31535
  0   215      1.27176    1.31534
  0   216      1.28965    1.23266
  0   217      1.33058    1.03234

  1   214      1.11166    1.80997
  1   215      1.11275    1.80810
  1   216      1.16903    1.68585
  1   217      1.16904    1.68585


Fermi level: 1.33705

No gap

Forces in eV/Ang:
  0 Pt    0.00001    0.00000   -0.07841
  1 Pt   -0.00000   -0.00002   -0.07841
  2 Pt   -0.00001    0.00000   -0.07841
  3 Pt   -0.00002    0.00001   -0.07841
  4 Pt    0.00002    0.00001   -0.07841
  5 Pt   -0.00000   -0.00000   -0.07840
  6 Pt    0.00000   -0.00001   -0.07841
  7 Pt   -0.00000    0.00000   -0.07840
  8 Pt    0.00000    0.00000   -0.07840
  9 Pt    0.00000    0.00001   -0.00075
 10 Pt   -0.00001   -0.00001   -0.00076
 11 Pt    0.00001   -0.00001   -0.00076
 12 Pt   -0.00000    0.00000   -0.00076
 13 Pt    0.00000    0.00001   -0.00076
 14 Pt    0.00000    0.00000   -0.00076
 15 Pt   -0.00001   -0.00000   -0.00075
 16 Pt    0.00001   -0.00000   -0.00075
 17 Pt    0.00000   -0.00000   -0.00076
 18 Pt   -0.00000    0.00000    0.07761
 19 Pt   -0.00000   -0.00001    0.07760
 20 Pt    0.00000   -0.00001    0.07760
 21 Pt   -0.00001    0.00000    0.07760
 22 Pt   -0.00000    0.00000    0.07761
 23 Pt    0.00001    0.00000    0.07760
 24 Pt   -0.00000    0.00001    0.07760
 25 Pt    0.00000    0.00001    0.07760
 26 Pt   -0.00000    0.00000    0.07761

System changes: positions 

Initializing position-dependent things.

Density initialized from wave functions
                                            
                                            
                                            
                                            
                                            
                 Pt     Pt     Pt           
            Pt     Pt     Pt                
       Pt     Pt  Pt Pt  Pt    Pt           
             Pt     Pt     Pt               
        Pt     Pt     Pt                    
                     Pt     Pt    Pt        
                Pt     Pt     Pt            
                                            
           Pt     Pt     Pt                 
                                            
                                            
                                            
                                            

Positions:
   0 Pt     1.403262    0.810173    5.905231    ( 0.0000,  0.0000,  0.0000)
   1 Pt     4.209760    0.810147    5.905234    ( 0.0000,  0.0000,  0.0000)
   2 Pt     7.016259    0.810173    5.905231    ( 0.0000,  0.0000,  0.0000)
   3 Pt     2.806488    3.240686    5.905234    ( 0.0000,  0.0000,  0.0000)
   4 Pt     5.613033    3.240686    5.905234    ( 0.0000,  0.0000,  0.0000)
   5 Pt     8.419520    3.240672    5.905235    ( 0.0000,  0.0000,  0.0000)
   6 Pt     4.209760    5.671172    5.905231    ( 0.0000,  0.0000,  0.0000)
   7 Pt     7.016265    5.671183    5.905235    ( 0.0000,  0.0000,  0.0000)
   8 Pt     9.822776    5.671183    5.905235    ( 0.0000,  0.0000,  0.0000)
   9 Pt    -0.000000    1.620345    8.290595    ( 0.0000,  0.0000,  0.0000)
  10 Pt     2.806493    1.620329    8.290588    ( 0.0000,  0.0000,  0.0000)
  11 Pt     5.613028    1.620329    8.290588    ( 0.0000,  0.0000,  0.0000)
  12 Pt     1.403253    4.050844    8.290585    ( 0.0000,  0.0000,  0.0000)
  13 Pt     4.209760    4.050860    8.290588    ( 0.0000,  0.0000,  0.0000)
  14 Pt     7.016267    4.050844    8.290585    ( 0.0000,  0.0000,  0.0000)
  15 Pt     2.806500    6.481346    8.290595    ( 0.0000,  0.0000,  0.0000)
  16 Pt     5.613020    6.481346    8.290595    ( 0.0000,  0.0000,  0.0000)
  17 Pt     8.419520    6.481350    8.290585    ( 0.0000,  0.0000,  0.0000)
  18 Pt    -0.000000    0.000000   10.676807    ( 0.0000,  0.0000,  0.0000)
  19 Pt     2.806502   -0.000008   10.676805    ( 0.0000,  0.0000,  0.0000)
  20 Pt     5.613018   -0.000008   10.676805    ( 0.0000,  0.0000,  0.0000)
  21 Pt     1.403244    2.430506   10.676805    ( 0.0000,  0.0000,  0.0000)
  22 Pt     4.209760    2.430506   10.676815    ( 0.0000,  0.0000,  0.0000)
  23 Pt     7.016276    2.430506   10.676805    ( 0.0000,  0.0000,  0.0000)
  24 Pt     2.806502    4.861021   10.676805    ( 0.0000,  0.0000,  0.0000)
  25 Pt     5.613018    4.861021   10.676805    ( 0.0000,  0.0000,  0.0000)
  26 Pt     8.419520    4.861012   10.676818    ( 0.0000,  0.0000,  0.0000)

Unit cell:
           periodic     x           y           z      points  spacing
  1. axis:    yes    8.419520    0.000000    0.000000    42     0.1736
  2. axis:    yes    4.209760    7.291519    0.000000    42     0.1736
  3. axis:    no     0.000000    0.000000   16.583006    84     0.1974

  Lengths:   8.419520   8.419520  16.583006
  Angles:   90.000000  90.000000  60.000000

Effective grid spacing dv^(1/3) = 0.1901

     iter     time        total  log10-change:
                         energy  eigst   dens
iter:   1 10:58:59  -181.611260  -0.70
iter:   2 10:59:04  -164.703930  -1.54  -1.43
iter:   3 10:59:09  -164.152488  -1.42  -1.71
iter:   4 10:59:14  -162.481734  -2.94  -1.98
iter:   5 10:59:19  -162.303029  -3.60  -2.16
iter:   6 10:59:24  -162.866762  -2.86  -2.18
iter:   7 10:59:29  -161.618864  -2.56  -2.15
iter:   8 10:59:34  -161.604154  -3.55  -2.53
iter:   9 10:59:39  -161.577019c -4.22  -2.64
iter:  10 10:59:44  -161.570763c -4.42  -2.95
iter:  11 10:59:49  -161.571234c -5.00  -3.14
iter:  12 10:59:54  -161.575109c -4.85  -3.20
iter:  13 10:59:58  -161.574600c -5.29  -3.36
iter:  14 11:00:04  -161.574592c -5.15  -3.54
iter:  15 11:00:09  -161.574414c -5.80  -3.62
iter:  16 11:00:13  -161.574854c -6.36  -3.91
iter:  17 11:00:18  -161.575190c -6.60  -3.98
iter:  18 11:00:23  -161.574958c -6.57  -4.06c
iter:  19 11:00:28  -161.574991c -6.21  -4.19c
iter:  20 11:00:33  -161.574857c -7.17  -4.39c
iter:  21 11:00:38  -161.574855c -7.93c -4.63c

Converged after 21 iterations.

Dipole moment: (-0.111220, -0.064213, -0.000385) |e|*Ang

Energy contributions relative to reference atoms: (reference = -13510134.794721)

Kinetic:       -385.376052
Potential:     +303.345010
External:        +0.000000
XC:             -64.148800
Entropy (-ST):   -1.758214
Local:          -14.515906
--------------------------
Free energy:   -162.453961
Extrapolated:  -161.574855

Showing only first 2 kpts
 Kpt  Band  Eigenvalues  Occupancy
  0   214      1.19484    1.33068
  0   215      1.20336    1.29225
  0   216      1.20336    1.29222
  0   217      1.22064    1.21139

  1   214      1.07365    1.73958
  1   215      1.11238    1.63866
  1   216      1.12603    1.59646
  1   217      1.12604    1.59645


Fermi level: 1.26356

No gap

Forces in eV/Ang:
  0 Pt   -0.00007   -0.00004    0.38569
  1 Pt    0.00000    0.00022    0.38568
  2 Pt    0.00007   -0.00004    0.38569
  3 Pt    0.00019   -0.00011    0.38568
  4 Pt   -0.00019   -0.00011    0.38568
  5 Pt    0.00000   -0.00001    0.38563
  6 Pt   -0.00000    0.00009    0.38569
  7 Pt   -0.00001    0.00001    0.38563
  8 Pt    0.00001    0.00001    0.38563
  9 Pt    0.00000   -0.00010    0.00381
 10 Pt    0.00019    0.00011    0.00389
 11 Pt   -0.00019    0.00011    0.00389
 12 Pt    0.00000   -0.00000    0.00394
 13 Pt   -0.00000   -0.00021    0.00389
 14 Pt   -0.00000   -0.00000    0.00394
 15 Pt    0.00009    0.00005    0.00381
 16 Pt   -0.00009    0.00005    0.00381
 17 Pt    0.00000    0.00000    0.00394
 18 Pt    0.00000    0.00000   -0.38377
 19 Pt    0.00007    0.00009   -0.38375
 20 Pt   -0.00007    0.00009   -0.38375
 21 Pt    0.00011    0.00002   -0.38375
 22 Pt   -0.00000    0.00000   -0.38390
 23 Pt   -0.00011    0.00002   -0.38375
 24 Pt    0.00004   -0.00011   -0.38375
 25 Pt   -0.00004   -0.00011   -0.38375
 26 Pt    0.00000   -0.00000   -0.38384

System changes: positions 

Initializing position-dependent things.

Density initialized from wave functions
                                            
                                            
                                            
                                            
                                            
                 Pt     Pt     Pt           
            Pt     Pt     Pt                
       Pt     Pt  Pt Pt  Pt    Pt           
             Pt     Pt     Pt               
        Pt     Pt     Pt                    
                     Pt     Pt    Pt        
                Pt     Pt     Pt            
                                            
           Pt     Pt     Pt                 
                                            
                                            
                                            
                                            

Positions:
   0 Pt     1.403250    0.810167    5.979564    ( 0.0000,  0.0000,  0.0000)
   1 Pt     4.209760    0.810178    5.979565    ( 0.0000,  0.0000,  0.0000)
   2 Pt     7.016270    0.810167    5.979564    ( 0.0000,  0.0000,  0.0000)
   3 Pt     2.806515    3.240670    5.979565    ( 0.0000,  0.0000,  0.0000)
   4 Pt     5.613005    3.240670    5.979565    ( 0.0000,  0.0000,  0.0000)
   5 Pt     8.419520    3.240672    5.979561    ( 0.0000,  0.0000,  0.0000)
   6 Pt     4.209760    5.671185    5.979564    ( 0.0000,  0.0000,  0.0000)
   7 Pt     7.016264    5.671183    5.979561    ( 0.0000,  0.0000,  0.0000)
   8 Pt     9.822777    5.671183    5.979561    ( 0.0000,  0.0000,  0.0000)
   9 Pt    -0.000000    1.620331    8.291320    ( 0.0000,  0.0000,  0.0000)
  10 Pt     2.806518    1.620344    8.291325    ( 0.0000,  0.0000,  0.0000)
  11 Pt     5.613002    1.620344    8.291325    ( 0.0000,  0.0000,  0.0000)
  12 Pt     1.403254    4.050844    8.291328    ( 0.0000,  0.0000,  0.0000)
  13 Pt     4.209760    4.050831    8.291325    ( 0.0000,  0.0000,  0.0000)
  14 Pt     7.016267    4.050844    8.291328    ( 0.0000,  0.0000,  0.0000)
  15 Pt     2.806512    6.481353    8.291320    ( 0.0000,  0.0000,  0.0000)
  16 Pt     5.613008    6.481353    8.291320    ( 0.0000,  0.0000,  0.0000)
  17 Pt     8.419520    6.481350    8.291328    ( 0.0000,  0.0000,  0.0000)
  18 Pt    -0.000000    0.000000   10.603007    ( 0.0000,  0.0000,  0.0000)
  19 Pt     2.806511    0.000005   10.603009    ( 0.0000,  0.0000,  0.0000)
  20 Pt     5.613009    0.000005   10.603009    ( 0.0000,  0.0000,  0.0000)
  21 Pt     1.403260    2.430508   10.603009    ( 0.0000,  0.0000,  0.0000)
  22 Pt     4.209760    2.430506   10.602998    ( 0.0000,  0.0000,  0.0000)
  23 Pt     7.016261    2.430508   10.603009    ( 0.0000,  0.0000,  0.0000)
  24 Pt     2.806509    4.861006   10.603009    ( 0.0000,  0.0000,  0.0000)
  25 Pt     5.613012    4.861006   10.603009    ( 0.0000,  0.0000,  0.0000)
  26 Pt     8.419520    4.861012   10.603006    ( 0.0000,  0.0000,  0.0000)

Unit cell:
           periodic     x           y           z      points  spacing
  1. axis:    yes    8.419520    0.000000    0.000000    42     0.1736
  2. axis:    yes    4.209760    7.291519    0.000000    42     0.1736
  3. axis:    no     0.000000    0.000000   16.583006    84     0.1974

  Lengths:   8.419520   8.419520  16.583006
  Angles:   90.000000  90.000000  60.000000

Effective grid spacing dv^(1/3) = 0.1901

     iter     time        total  log10-change:
                         energy  eigst   dens
iter:   1 11:00:45  -172.359305  -1.00
iter:   2 11:00:50  -162.201608  -1.59  -1.51
iter:   3 11:00:55  -162.037684  -2.58  -2.12
iter:   4 11:01:00  -162.001235c -3.09  -2.26
iter:   5 11:01:05  -161.863723c -3.29  -2.30
iter:   6 11:01:10  -161.839116c -3.41  -2.50
iter:   7 11:01:15  -161.843753c -3.82  -2.69
iter:   8 11:01:20  -161.848485c -4.32  -3.04
iter:   9 11:01:25  -161.847248c -5.12  -3.19
iter:  10 11:01:30  -161.843800c -4.61  -3.25
iter:  11 11:01:35  -161.843332c -5.54  -3.54
iter:  12 11:01:40  -161.843926c -5.74  -3.69
iter:  13 11:01:45  -161.843661c -6.44  -3.86
iter:  14 11:01:50  -161.842905c -6.23  -3.90
iter:  15 11:01:55  -161.842837c -6.60  -4.18c
iter:  16 11:02:00  -161.842895c -7.19  -4.29c
iter:  17 11:02:05  -161.842903c -6.94  -4.38c
iter:  18 11:02:10  -161.842943c -7.55c -4.60c

Converged after 18 iterations.

Dipole moment: (-0.161915, -0.093481, 0.000143) |e|*Ang

Energy contributions relative to reference atoms: (reference = -13510134.794721)

Kinetic:       -329.952719
Potential:     +255.722433
External:        +0.000000
XC:             -72.131593
Entropy (-ST):   -1.809972
Local:          -14.576077
--------------------------
Free energy:   -162.747929
Extrapolated:  -161.842943

Showing only first 2 kpts
 Kpt  Band  Eigenvalues  Occupancy
  0   214      1.26193    1.28827
  0   215      1.26193    1.28825
  0   216      1.27055    1.24828
  0   217      1.30186    1.09671

  1   214      1.09280    1.81520
  1   215      1.11492    1.77460
  1   216      1.16207    1.66178
  1   217      1.16209    1.66173


Fermi level: 1.32126

No gap

Forces in eV/Ang:
  0 Pt    0.00003    0.00002    0.03490
  1 Pt   -0.00000   -0.00020    0.03493
  2 Pt   -0.00003    0.00002    0.03490
  3 Pt   -0.00017    0.00010    0.03493
  4 Pt    0.00017    0.00010    0.03493
  5 Pt   -0.00000    0.00008    0.03486
  6 Pt   -0.00000   -0.00003    0.03490
  7 Pt    0.00007   -0.00004    0.03486
  8 Pt   -0.00007   -0.00004    0.03486
  9 Pt    0.00000    0.00010   -0.00079
 10 Pt   -0.00014   -0.00008   -0.00088
 11 Pt    0.00014   -0.00008   -0.00088
 12 Pt    0.00004   -0.00002   -0.00093
 13 Pt    0.00000    0.00017   -0.00088
 14 Pt   -0.00004   -0.00002   -0.00093
 15 Pt   -0.00008   -0.00005   -0.00079
 16 Pt    0.00008   -0.00005   -0.00079
 17 Pt   -0.00000    0.00004   -0.00093
 18 Pt   -0.00000   -0.00000   -0.03476
 19 Pt   -0.00009   -0.00011   -0.03479
 20 Pt    0.00009   -0.00011   -0.03479
 21 Pt   -0.00014   -0.00002   -0.03479
 22 Pt    0.00000   -0.00000   -0.03482
 23 Pt    0.00014   -0.00002   -0.03479
 24 Pt   -0.00005    0.00013   -0.03479
 25 Pt    0.00005    0.00013   -0.03479
 26 Pt    0.00000   -0.00000   -0.03470

System changes: positions 

Initializing position-dependent things.

Density initialized from wave functions
                                            
                                            
                                            
                                            
                                            
                 Pt     Pt     Pt           
            Pt    PPt    PPt   Pt           
       Pt     Pt     Pt                     
             Pt     Pt     Pt               
        Pt     Pt    PPt    Pt    Pt        
                                            
                Pt     Pt     Pt            
           Pt     Pt     Pt                 
                                            
                                            
                                            
                                            

Positions:
   0 Pt     1.403386    0.810245    6.194172    ( 0.0000,  0.0000,  0.0000)
   1 Pt     4.209760    0.809807    6.194151    ( 0.0000,  0.0000,  0.0000)
   2 Pt     7.016135    0.810245    6.194172    ( 0.0000,  0.0000,  0.0000)
   3 Pt     2.806194    3.240856    6.194151    ( 0.0000,  0.0000,  0.0000)
   4 Pt     5.613327    3.240856    6.194151    ( 0.0000,  0.0000,  0.0000)
   5 Pt     8.419520    3.240744    6.194338    ( 0.0000,  0.0000,  0.0000)
   6 Pt     4.209760    5.671028    6.194172    ( 0.0000,  0.0000,  0.0000)
   7 Pt     7.016327    5.671147    6.194338    ( 0.0000,  0.0000,  0.0000)
   8 Pt     9.822714    5.671147    6.194338    ( 0.0000,  0.0000,  0.0000)
   9 Pt    -0.000000    1.620557    8.293395    ( 0.0000,  0.0000,  0.0000)
  10 Pt     2.806107    1.620107    8.293225    ( 0.0000,  0.0000,  0.0000)
  11 Pt     5.613413    1.620107    8.293225    ( 0.0000,  0.0000,  0.0000)
  12 Pt     1.403233    4.050855    8.293121    ( 0.0000,  0.0000,  0.0000)
  13 Pt     4.209760    4.051305    8.293225    ( 0.0000,  0.0000,  0.0000)
  14 Pt     7.016287    4.050855    8.293121    ( 0.0000,  0.0000,  0.0000)
  15 Pt     2.806317    6.481240    8.293395    ( 0.0000,  0.0000,  0.0000)
  16 Pt     5.613203    6.481240    8.293395    ( 0.0000,  0.0000,  0.0000)
  17 Pt     8.419520    6.481327    8.293121    ( 0.0000,  0.0000,  0.0000)
  18 Pt     0.000000    0.000000   10.398701    ( 0.0000,  0.0000,  0.0000)
  19 Pt     2.806358   -0.000157   10.398640    ( 0.0000,  0.0000,  0.0000)
  20 Pt     5.613162   -0.000157   10.398640    ( 0.0000,  0.0000,  0.0000)
  21 Pt     1.403043    2.430456   10.398640    ( 0.0000,  0.0000,  0.0000)
  22 Pt     4.209760    2.430506   10.399082    ( 0.0000,  0.0000,  0.0000)
  23 Pt     7.016478    2.430456   10.398640    ( 0.0000,  0.0000,  0.0000)
  24 Pt     2.806445    4.861220   10.398640    ( 0.0000,  0.0000,  0.0000)
  25 Pt     5.613076    4.861220   10.398640    ( 0.0000,  0.0000,  0.0000)
  26 Pt     8.419520    4.861012   10.398758    ( 0.0000,  0.0000,  0.0000)

Unit cell:
           periodic     x           y           z      points  spacing
  1. axis:    yes    8.419520    0.000000    0.000000    42     0.1736
  2. axis:    yes    4.209760    7.291519    0.000000    42     0.1736
  3. axis:    no     0.000000    0.000000   16.583006    84     0.1974

  Lengths:   8.419520   8.419520  16.583006
  Angles:   90.000000  90.000000  60.000000

Effective grid spacing dv^(1/3) = 0.1901

     iter     time        total  log10-change:
                         energy  eigst   dens
iter:   1 11:02:16  -212.862914  -0.10
iter:   2 11:02:21  -163.898355  -0.95  -1.16
iter:   3 11:02:26  -160.111388  -1.31  -1.58
iter:   4 11:02:31  -159.761717  -2.56  -1.95
iter:   5 11:02:36  -159.504089  -2.54  -1.98
iter:   6 11:02:41  -159.376741  -3.02  -2.10
iter:   7 11:02:46  -159.488309c -2.49  -2.19
iter:   8 11:02:51  -159.360361c -2.61  -2.30
iter:   9 11:02:56  -159.307214c -3.67  -2.57
iter:  10 11:03:01  -159.299701c -4.43  -2.80
iter:  11 11:03:06  -159.295279c -4.08  -2.87
iter:  12 11:03:11  -159.292751c -4.78  -3.01
iter:  13 11:03:16  -159.291591c -4.58  -3.10
iter:  14 11:03:21  -159.290965c -5.38  -3.38
iter:  15 11:03:26  -159.290019c -5.36  -3.46
iter:  16 11:03:31  -159.289810c -5.57  -3.75
iter:  17 11:03:36  -159.289677c -6.47  -3.87
iter:  18 11:03:41  -159.289667c -6.04  -3.93
iter:  19 11:03:46  -159.289686c -6.43  -4.02c
iter:  20 11:03:51  -159.289900c -6.56  -4.30c
iter:  21 11:03:56  -159.289880c -7.47c -4.38c

Converged after 21 iterations.

Dipole moment: (-0.317419, -0.183262, 0.001804) |e|*Ang

Energy contributions relative to reference atoms: (reference = -13510134.794721)

Kinetic:       -103.495220
Potential:      +62.124841
External:        +0.000000
XC:            -101.975647
Entropy (-ST):   -1.727244
Local:          -15.080232
--------------------------
Free energy:   -160.153502
Extrapolated:  -159.289880

Showing only first 2 kpts
 Kpt  Band  Eigenvalues  Occupancy
  0   214      1.32625    1.68818
  0   215      1.32642    1.68775
  0   216      1.43010    1.31425
  0   217      1.52579    0.84800

  1   214      1.22934    1.86902
  1   215      1.26131    1.82402
  1   216      1.28890    1.77441
  1   217      1.30736    1.73474


Fermi level: 1.49515

No gap

Forces in eV/Ang:
  0 Pt   -0.00346   -0.00200   -1.63311
  1 Pt    0.00000    0.00620   -1.63171
  2 Pt    0.00346   -0.00200   -1.63311
  3 Pt    0.00537   -0.00310   -1.63171
  4 Pt   -0.00537   -0.00310   -1.63171
  5 Pt    0.00000   -0.00159   -1.63728
  6 Pt    0.00000    0.00399   -1.63311
  7 Pt   -0.00137    0.00079   -1.63728
  8 Pt    0.00137    0.00079   -1.63728
  9 Pt    0.00000   -0.00540    0.06116
 10 Pt    0.00972    0.00561    0.06741
 11 Pt   -0.00972    0.00561    0.06741
 12 Pt    0.00093   -0.00054    0.07100
 13 Pt   -0.00000   -0.01122    0.06741
 14 Pt   -0.00093   -0.00054    0.07100
 15 Pt    0.00467    0.00270    0.06116
 16 Pt   -0.00467    0.00270    0.06116
 17 Pt   -0.00000    0.00108    0.07100
 18 Pt   -0.00000    0.00000    1.56676
 19 Pt    0.00332    0.00206    1.56880
 20 Pt   -0.00332    0.00206    1.56880
 21 Pt    0.00345    0.00184    1.56880
 22 Pt    0.00000    0.00000    1.55619
 23 Pt   -0.00345    0.00184    1.56880
 24 Pt    0.00013   -0.00391    1.56880
 25 Pt   -0.00013   -0.00391    1.56880
 26 Pt    0.00000   -0.00000    1.56545

System changes: positions 

Initializing position-dependent things.

Density initialized from wave functions
                                            
                                            
                                            
                                            
                                            
                 Pt     Pt     Pt           
            Pt     Pt     Pt                
       Pt     Pt  Pt Pt  Pt    Pt           
             Pt     Pt     Pt               
        Pt     Pt     Pt                    
                     Pt     Pt    Pt        
                Pt     Pt     Pt            
                                            
           Pt     Pt     Pt                 
                                            
                                            
                                            
                                            

Positions:
   0 Pt     1.403252    0.810168    5.985936    ( 0.0000,  0.0000,  0.0000)
   1 Pt     4.209760    0.810167    5.985938    ( 0.0000,  0.0000,  0.0000)
   2 Pt     7.016268    0.810168    5.985936    ( 0.0000,  0.0000,  0.0000)
   3 Pt     2.806506    3.240676    5.985938    ( 0.0000,  0.0000,  0.0000)
   4 Pt     5.613015    3.240676    5.985938    ( 0.0000,  0.0000,  0.0000)
   5 Pt     8.419520    3.240676    5.985931    ( 0.0000,  0.0000,  0.0000)
   6 Pt     4.209760    5.671182    5.985936    ( 0.0000,  0.0000,  0.0000)
   7 Pt     7.016268    5.671181    5.985931    ( 0.0000,  0.0000,  0.0000)
   8 Pt     9.822773    5.671181    5.985931    ( 0.0000,  0.0000,  0.0000)
   9 Pt    -0.000000    1.620337    8.291320    ( 0.0000,  0.0000,  0.0000)
  10 Pt     2.806509    1.620339    8.291320    ( 0.0000,  0.0000,  0.0000)
  11 Pt     5.613012    1.620339    8.291320    ( 0.0000,  0.0000,  0.0000)
  12 Pt     1.403255    4.050843    8.291320    ( 0.0000,  0.0000,  0.0000)
  13 Pt     4.209760    4.050841    8.291320    ( 0.0000,  0.0000,  0.0000)
  14 Pt     7.016265    4.050843    8.291320    ( 0.0000,  0.0000,  0.0000)
  15 Pt     2.806507    6.481350    8.291320    ( 0.0000,  0.0000,  0.0000)
  16 Pt     5.613013    6.481350    8.291320    ( 0.0000,  0.0000,  0.0000)
  17 Pt     8.419520    6.481352    8.291320    ( 0.0000,  0.0000,  0.0000)
  18 Pt    -0.000000   -0.000000   10.596730    ( 0.0000,  0.0000,  0.0000)
  19 Pt     2.806506   -0.000001   10.596730    ( 0.0000,  0.0000,  0.0000)
  20 Pt     5.613014   -0.000001   10.596730    ( 0.0000,  0.0000,  0.0000)
  21 Pt     1.403252    2.430507   10.596730    ( 0.0000,  0.0000,  0.0000)
  22 Pt     4.209760    2.430506   10.596721    ( 0.0000,  0.0000,  0.0000)
  23 Pt     7.016268    2.430507   10.596730    ( 0.0000,  0.0000,  0.0000)
  24 Pt     2.806506    4.861013   10.596730    ( 0.0000,  0.0000,  0.0000)
  25 Pt     5.613015    4.861013   10.596730    ( 0.0000,  0.0000,  0.0000)
  26 Pt     8.419520    4.861012   10.596732    ( 0.0000,  0.0000,  0.0000)

Unit cell:
           periodic     x           y           z      points  spacing
  1. axis:    yes    8.419520    0.000000    0.000000    42     0.1736
  2. axis:    yes    4.209760    7.291519    0.000000    42     0.1736
  3. axis:    no     0.000000    0.000000   16.583006    84     0.1974

  Lengths:   8.419520   8.419520  16.583006
  Angles:   90.000000  90.000000  60.000000

Effective grid spacing dv^(1/3) = 0.1901

     iter     time        total  log10-change:
                         energy  eigst   dens
iter:   1 11:04:02  -255.969538  +0.15
iter:   2 11:04:07  -198.323557  -0.94  -1.11
iter:   3 11:04:12  -187.123707  -0.65  -1.27
iter:   4 11:04:17  -177.016363  -0.94  -1.39
iter:   5 11:04:22  -166.336089  -2.02  -1.64
iter:   6 11:04:27  -165.412873  -2.91  -1.84
iter:   7 11:04:32  -162.420923  -2.20  -1.88
iter:   8 11:04:37  -162.112015  -2.82  -2.04
iter:   9 11:04:42  -161.987567  -3.33  -2.13
iter:  10 11:04:47  -162.483977  -2.89  -2.18
iter:  11 11:04:52  -161.841775  -2.93  -2.17
iter:  12 11:04:57  -161.838243  -3.96  -2.82
iter:  13 11:05:02  -161.839962c -4.15  -2.91
iter:  14 11:05:07  -161.840314c -4.72  -2.96
iter:  15 11:05:12  -161.841191c -4.10  -3.04
iter:  16 11:05:17  -161.842151c -5.06  -3.42
iter:  17 11:05:22  -161.843126c -5.21  -3.45
iter:  18 11:05:27  -161.844165c -5.55  -3.61
iter:  19 11:05:32  -161.843975c -5.69  -3.65
iter:  20 11:05:37  -161.844125c -6.33  -3.80
iter:  21 11:05:42  -161.843879c -6.21  -3.82
iter:  22 11:05:47  -161.844055c -6.03  -3.96
iter:  23 11:05:52  -161.843958c -6.85  -4.35c
iter:  24 11:05:57  -161.843915c -7.41c -4.47c

Converged after 24 iterations.

Dipole moment: (-0.167389, -0.096642, -0.000234) |e|*Ang

Energy contributions relative to reference atoms: (reference = -13510134.794721)

Kinetic:       -326.802763
Potential:     +253.205793
External:        +0.000000
XC:             -72.744396
Entropy (-ST):   -1.812902
Local:          -14.596098
--------------------------
Free energy:   -162.750366
Extrapolated:  -161.843915

Showing only first 2 kpts
 Kpt  Band  Eigenvalues  Occupancy
  0   214      1.26401    1.29595
  0   215      1.26402    1.29591
  0   216      1.27525    1.24386
  0   217      1.30946    1.07765

  1   214      1.09699    1.81447
  1   215      1.11336    1.78502
  1   216      1.16328    1.66888
  1   217      1.16328    1.66888


Fermi level: 1.32503

No gap

Forces in eV/Ang:
  0 Pt    0.00008    0.00005    0.00596
  1 Pt   -0.00000   -0.00011    0.00588
  2 Pt   -0.00008    0.00005    0.00596
  3 Pt   -0.00010    0.00006    0.00588
  4 Pt    0.00010    0.00006    0.00588
  5 Pt   -0.00000    0.00005    0.00606
  6 Pt    0.00000   -0.00009    0.00596
  7 Pt    0.00005   -0.00003    0.00606
  8 Pt   -0.00005   -0.00003    0.00606
  9 Pt    0.00000    0.00007    0.00204
 10 Pt   -0.00019   -0.00011    0.00204
 11 Pt    0.00019   -0.00011    0.00204
 12 Pt   -0.00011    0.00006    0.00195
 13 Pt   -0.00000    0.00021    0.00204
 14 Pt    0.00011    0.00006    0.00195
 15 Pt   -0.00006   -0.00003    0.00204
 16 Pt    0.00006   -0.00003    0.00204
 17 Pt    0.00000   -0.00012    0.00195
 18 Pt    0.00000    0.00000   -0.00657
 19 Pt   -0.00001    0.00003   -0.00650
 20 Pt    0.00001    0.00003   -0.00650
 21 Pt    0.00002   -0.00003   -0.00650
 22 Pt   -0.00000   -0.00000   -0.00616
 23 Pt   -0.00002   -0.00003   -0.00650
 24 Pt    0.00003   -0.00001   -0.00650
 25 Pt   -0.00003   -0.00001   -0.00650
 26 Pt    0.00000   -0.00000   -0.00649

Writing to Pt.gpw (mode='')


  ___ ___ ___ _ _ _  
 |   |   |_  | | | | 
 | | | | | . | | | | 
 |__ |  _|___|_____|  22.8.0
 |___|_|             

User:   jesfra@vera32-3
Date:   Thu Feb 23 11:05:58 2023
Arch:   x86_64
Pid:    2986873
CWD:    /cephyr/users/jesfra/Vera/A4
Python: 3.10.4
gpaw:   /apps/Arch/software/GPAW/22.8.0-foss-2022a/lib/python3.10/site-packages/gpaw
_gpaw:  /apps/Arch/software/GPAW/22.8.0-foss-2022a/lib/python3.10/site-packages/
        _gpaw.cpython-310-x86_64-linux-gnu.so
ase:    /apps/Arch/software/ASE/3.22.1-foss-2022a/lib/python3.10/site-packages/ase (version 3.22.1)
numpy:  /apps/Arch/software/SciPy-bundle/2022.05-foss-2022a/lib/python3.10/site-packages/numpy (version 1.22.3)
scipy:  /apps/Arch/software/SciPy-bundle/2022.05-foss-2022a/lib/python3.10/site-packages/scipy (version 1.8.1)
libxc:  5.2.3
units:  Angstrom and eV
cores: 32
OpenMP: False
OMP_NUM_THREADS: 1

Input parameters:
  kpts: [4 4 1]
  mode: {ecut: 450.00000000000006,
         name: pw}
  xc: PBE

Timing:                                      incl.     excl.
-------------------------------------------------------------------
Density initialized from wave functions:     1.221     0.987   0.2% |
 Symmetrize density:                         0.234     0.234   0.0% |
Forces:                                      3.548     3.548   0.6% |
[...]
   5 Rh     8.143749    3.134243    5.832641    ( 0.0000,  0.0000,  0.0000)
   6 Rh     4.071874    5.485676    5.831907    ( 0.0000,  0.0000,  0.0000)
   7 Rh     6.786209    5.485572    5.832641    ( 0.0000,  0.0000,  0.0000)
   8 Rh     9.501289    5.485572    5.832641    ( 0.0000,  0.0000,  0.0000)
   9 Rh    -0.000000    1.568418    8.210544    ( 0.0000,  0.0000,  0.0000)
  10 Rh     2.713847    1.566840    8.210641    ( 0.0000,  0.0000,  0.0000)
  11 Rh     5.429902    1.566840    8.210641    ( 0.0000,  0.0000,  0.0000)
  12 Rh     1.356137    3.918829    8.211645    ( 0.0000,  0.0000,  0.0000)
  13 Rh     4.071874    3.919013    8.210641    ( 0.0000,  0.0000,  0.0000)
  14 Rh     6.787611    3.918829    8.211645    ( 0.0000,  0.0000,  0.0000)
  15 Rh     2.713585    6.268484    8.210544    ( 0.0000,  0.0000,  0.0000)
  16 Rh     5.430164    6.268484    8.210544    ( 0.0000,  0.0000,  0.0000)
  17 Rh     8.143749    6.267728    8.211645    ( 0.0000,  0.0000,  0.0000)
  18 Rh     0.000000   -0.000000   10.607544    ( 0.0000,  0.0000,  0.0000)
  19 Rh     2.714401   -0.000490   10.606108    ( 0.0000,  0.0000,  0.0000)
  20 Rh     5.429348   -0.000490   10.606108    ( 0.0000,  0.0000,  0.0000)
  21 Rh     1.356776    2.350986   10.606108    ( 0.0000,  0.0000,  0.0000)
  22 Rh     4.071874    2.350898   10.606627    ( 0.0000,  0.0000,  0.0000)
  23 Rh     6.786973    2.350986   10.606108    ( 0.0000,  0.0000,  0.0000)
  24 Rh     2.714249    4.702198   10.606108    ( 0.0000,  0.0000,  0.0000)
  25 Rh     5.429500    4.702198   10.606108    ( 0.0000,  0.0000,  0.0000)
  26 Rh     8.143749    4.701796   10.604933    ( 0.0000,  0.0000,  0.0000)

Unit cell:
           periodic     x           y           z      points  spacing
  1. axis:    yes    8.143749    0.000000    0.000000    40     0.1763
  2. axis:    yes    4.071874    7.052693    0.000000    40     0.1763
  3. axis:    no     0.000000    0.000000   16.432895    81     0.2029

  Lengths:   8.143749   8.143749  16.432895
  Angles:   90.000000  90.000000  60.000000

Effective grid spacing dv^(1/3) = 0.1938

     iter     time        total  log10-change:
                         energy  eigst   dens
iter:   1 11:10:52  -368.779509  +0.44
iter:   2 11:10:56  -250.270420  -0.49  -0.98
iter:   3 11:11:00  -263.808837  -0.44  -1.07
iter:   4 11:11:04  -297.481389  -0.24  -1.07
iter:   5 11:11:09  -200.859313  -1.00  -1.10
iter:   6 11:11:13  -200.485825  -2.31  -1.47
iter:   7 11:11:17  -187.620663  -1.58  -1.47
iter:   8 11:11:21  -184.050788  -1.78  -1.55
iter:   9 11:11:25  -182.584631  -2.69  -1.72
iter:  10 11:11:30  -180.355256  -1.73  -1.84
iter:  11 11:11:34  -180.325453  -3.19  -2.00
iter:  12 11:11:38  -180.196439c -3.25  -2.03
iter:  13 11:11:42  -180.104670  -2.82  -2.13
iter:  14 11:11:46  -179.990884  -3.70  -2.27
iter:  15 11:11:51  -179.982242c -4.28  -2.48
iter:  16 11:11:55  -179.943713c -3.54  -2.51
iter:  17 11:11:59  -179.937918c -4.27  -2.84
iter:  18 11:12:03  -179.936763c -4.97  -3.07
iter:  19 11:12:07  -179.938327c -5.00  -3.13
iter:  20 11:12:12  -179.935582c -4.99  -3.04
iter:  21 11:12:16  -179.934685c -5.00  -3.29
iter:  22 11:12:20  -179.934490c -5.68  -3.42
iter:  23 11:12:24  -179.934301c -5.99  -3.57
iter:  24 11:12:28  -179.934270c -6.15  -3.69
iter:  25 11:12:33  -179.934118c -5.69  -3.74
iter:  26 11:12:37  -179.934070c -6.41  -3.85
iter:  27 11:12:41  -179.934017c -6.61  -3.94
iter:  28 11:12:45  -179.934026c -7.18  -4.04c
iter:  29 11:12:49  -179.934038c -6.87  -4.11c
iter:  30 11:12:54  -179.934089c -7.28  -4.39c
iter:  31 11:12:58  -179.934096c -7.73c -4.42c

Converged after 31 iterations.

Dipole moment: (-0.168940, -0.097538, -0.001222) |e|*Ang

Energy contributions relative to reference atoms: (reference = -3513635.469005)

Kinetic:       -262.998549
Potential:     +169.819416
External:        +0.000000
XC:             -83.494048
Entropy (-ST):   -1.998606
Local:           -2.261612
--------------------------
Free energy:   -180.933399
Extrapolated:  -179.934096

Showing only first 2 kpts
 Kpt  Band  Eigenvalues  Occupancy
  0   200      1.42038    1.26915
  0   201      1.45607    1.09717
  0   202      1.52866    0.74061
  0   203      1.56318    0.58799

  1   200      1.45241    1.11528
  1   201      1.45245    1.11506
  1   202      1.48388    0.95847
  1   203      1.48418    0.95697


Fermi level: 1.47557

No gap

Forces in eV/Ang:
  0 Rh    0.00226    0.00130    1.21265
  1 Rh   -0.00000    0.00160    1.21413
  2 Rh   -0.00226    0.00130    1.21265
  3 Rh    0.00139   -0.00080    1.21413
  4 Rh   -0.00139   -0.00080    1.21413
  5 Rh    0.00000    0.00249    1.20863
  6 Rh   -0.00000   -0.00261    1.21265
  7 Rh    0.00216   -0.00124    1.20863
  8 Rh   -0.00216   -0.00124    1.20863
  9 Rh    0.00000   -0.01453    0.03932
 10 Rh    0.00901    0.00520    0.03853
 11 Rh   -0.00901    0.00520    0.03853
 12 Rh    0.01555   -0.00898    0.03694
 13 Rh    0.00000   -0.01041    0.03853
 14 Rh   -0.01555   -0.00898    0.03694
 15 Rh    0.01258    0.00726    0.03932
 16 Rh   -0.01258    0.00726    0.03932
 17 Rh    0.00000    0.01796    0.03694
 18 Rh   -0.00000    0.00000   -1.24783
 19 Rh    0.00093    0.00593   -1.24177
 20 Rh   -0.00093    0.00593   -1.24177
 21 Rh    0.00560   -0.00216   -1.24177
 22 Rh    0.00000    0.00000   -1.24646
 23 Rh   -0.00560   -0.00216   -1.24177
 24 Rh    0.00467   -0.00377   -1.24177
 25 Rh   -0.00467   -0.00377   -1.24177
 26 Rh   -0.00000    0.00000   -1.23526

System changes: positions 

Initializing position-dependent things.

Density initialized from wave functions
                                           
                                           
                                           
                                           
                Rh     Rh     Rh           
                                           
            Rh   RRh    RRh    Rh          
       Rh     Rh    Rh                     
             Rh    Rh     Rh               
        Rh     Rh   RRh    Rh    Rh        
                                           
                Rh    Rh     Rh            
           Rh    Rh     Rh                 
                                           
                                           
                                           
                                           

Positions:
   0 Rh     1.357306    0.783641    6.056603    ( 0.0000,  0.0000,  0.0000)
   1 Rh     4.071874    0.783641    6.056592    ( 0.0000,  0.0000,  0.0000)
   2 Rh     6.786443    0.783641    6.056603    ( 0.0000,  0.0000,  0.0000)
   3 Rh     2.714590    3.134526    6.056592    ( 0.0000,  0.0000,  0.0000)
   4 Rh     5.429159    3.134526    6.056592    ( 0.0000,  0.0000,  0.0000)
   5 Rh     8.143749    3.134541    6.056562    ( 0.0000,  0.0000,  0.0000)
   6 Rh     4.071874    5.485412    6.056603    ( 0.0000,  0.0000,  0.0000)
   7 Rh     6.786466    5.485423    6.056562    ( 0.0000,  0.0000,  0.0000)
   8 Rh     9.501031    5.485423    6.056562    ( 0.0000,  0.0000,  0.0000)
   9 Rh    -0.000000    1.567246    8.216630    ( 0.0000,  0.0000,  0.0000)
  10 Rh     2.714598    1.567274    8.216630    ( 0.0000,  0.0000,  0.0000)
  11 Rh     5.429151    1.567274    8.216630    ( 0.0000,  0.0000,  0.0000)
  12 Rh     1.357306    3.918154    8.216578    ( 0.0000,  0.0000,  0.0000)
  13 Rh     4.071874    3.918146    8.216630    ( 0.0000,  0.0000,  0.0000)
  14 Rh     6.786442    3.918154    8.216578    ( 0.0000,  0.0000,  0.0000)
  15 Rh     2.714599    6.269070    8.216630    ( 0.0000,  0.0000,  0.0000)
  16 Rh     5.429149    6.269070    8.216630    ( 0.0000,  0.0000,  0.0000)
  17 Rh     8.143749    6.269078    8.216578    ( 0.0000,  0.0000,  0.0000)
  18 Rh    -0.000000    0.000000   10.376168    ( 0.0000,  0.0000,  0.0000)
  19 Rh     2.714612    0.000008   10.376231    ( 0.0000,  0.0000,  0.0000)
  20 Rh     5.429137    0.000008   10.376231    ( 0.0000,  0.0000,  0.0000)
  21 Rh     1.357313    2.350918   10.376231    ( 0.0000,  0.0000,  0.0000)
  22 Rh     4.071874    2.350898   10.376215    ( 0.0000,  0.0000,  0.0000)
  23 Rh     6.786436    2.350918   10.376231    ( 0.0000,  0.0000,  0.0000)
  24 Rh     2.714576    4.701767   10.376231    ( 0.0000,  0.0000,  0.0000)
  25 Rh     5.429173    4.701767   10.376231    ( 0.0000,  0.0000,  0.0000)
  26 Rh     8.143749    4.701796   10.376279    ( 0.0000,  0.0000,  0.0000)

Unit cell:
           periodic     x           y           z      points  spacing
  1. axis:    yes    8.143749    0.000000    0.000000    40     0.1763
  2. axis:    yes    4.071874    7.052693    0.000000    40     0.1763
  3. axis:    no     0.000000    0.000000   16.432895    81     0.2029

  Lengths:   8.143749   8.143749  16.432895
  Angles:   90.000000  90.000000  60.000000

Effective grid spacing dv^(1/3) = 0.1938

     iter     time        total  log10-change:
                         energy  eigst   dens
iter:   1 11:13:03  -292.314148  +0.09
iter:   2 11:13:08  -186.253554  -0.36  -0.95
iter:   3 11:13:12  -184.976763  -1.97  -1.74
iter:   4 11:13:16  -185.720738  -2.25  -1.74
iter:   5 11:13:20  -183.313226  -1.96  -1.69
iter:   6 11:13:24  -183.224476  -2.40  -2.04
iter:   7 11:13:29  -183.282706c -2.63  -2.19
iter:   8 11:13:33  -183.115399c -2.85  -2.20
iter:   9 11:13:37  -183.108611c -3.71  -2.64
iter:  10 11:13:41  -183.101826c -3.96  -2.68
iter:  11 11:13:45  -183.127761c -4.00  -2.76
iter:  12 11:13:50  -183.088584c -3.75  -2.67
iter:  13 11:13:54  -183.088775c -4.67  -3.26
iter:  14 11:13:58  -183.088530c -5.14  -3.28
iter:  15 11:14:02  -183.088877c -5.01  -3.36
iter:  16 11:14:06  -183.089136c -5.54  -3.63
iter:  17 11:14:11  -183.089108c -6.01  -3.73
iter:  18 11:14:15  -183.089157c -6.19  -3.84
iter:  19 11:14:19  -183.089199c -6.21  -3.93
iter:  20 11:14:23  -183.089181c -6.47  -4.10c
iter:  21 11:14:27  -183.089148c -6.70  -4.23c
iter:  22 11:14:32  -183.089126c -7.01  -4.34c
iter:  23 11:14:36  -183.089124c -7.28  -4.36c
iter:  24 11:14:40  -183.089101c -7.48c -4.28c

Converged after 24 iterations.

Dipole moment: (-0.259115, -0.149600, -0.000099) |e|*Ang

Energy contributions relative to reference atoms: (reference = -3513635.469005)

Kinetic:       -151.895617
Potential:      +76.975196
External:        +0.000000
XC:            -105.178518
Entropy (-ST):   -1.605809
Local:           -2.187259
--------------------------
Free energy:   -183.892006
Extrapolated:  -183.089101

Showing only first 2 kpts
 Kpt  Band  Eigenvalues  Occupancy
  0   200      1.60439    1.11181
  0   201      1.60443    1.11164
  0   202      1.60786    1.09468
  0   203      1.67470    0.76523

  1   200      1.54533    1.38643
  1   201      1.56033    1.32088
  1   202      1.56033    1.32086
  1   203      1.67397    0.76867


Fermi level: 1.62685

No gap

Forces in eV/Ang:
  0 Rh    0.00007    0.00004    0.00519
  1 Rh   -0.00000    0.00031    0.00503
  2 Rh   -0.00007    0.00004    0.00519
  3 Rh    0.00027   -0.00015    0.00503
  4 Rh   -0.00027   -0.00015    0.00503
  5 Rh    0.00000   -0.00029    0.00496
  6 Rh    0.00000   -0.00008    0.00519
  7 Rh   -0.00025    0.00015    0.00496
  8 Rh    0.00025    0.00015    0.00496
  9 Rh    0.00000    0.00035   -0.00136
 10 Rh    0.00008    0.00005   -0.00134
 11 Rh   -0.00008    0.00005   -0.00134
 12 Rh    0.00006   -0.00003   -0.00106
 13 Rh   -0.00000   -0.00010   -0.00134
 14 Rh   -0.00006   -0.00003   -0.00106
 15 Rh   -0.00031   -0.00018   -0.00136
 16 Rh    0.00031   -0.00018   -0.00136
 17 Rh    0.00000    0.00007   -0.00106
 18 Rh   -0.00000    0.00000   -0.00134
 19 Rh   -0.00009    0.00006   -0.00179
 20 Rh    0.00009    0.00006   -0.00179
 21 Rh    0.00001   -0.00011   -0.00179
 22 Rh   -0.00000    0.00000   -0.00176
 23 Rh   -0.00001   -0.00011   -0.00179
 24 Rh    0.00010    0.00005   -0.00179
 25 Rh   -0.00010    0.00005   -0.00179
 26 Rh    0.00000    0.00000   -0.00196

Writing to Rh.gpw (mode='')

Surfaces energies:
Au = -78.83032365345912 eV
Pt = -161.84391495171982 eV
Rh = -183.08910115651787 eV
Timing:                                      incl.     excl.
-------------------------------------------------------------------
Density initialized from wave functions:     1.082     0.872   0.2% |
 Symmetrize density:                         0.210     0.210   0.0% |
Forces:                                      3.147     3.147   0.6% |
Hamiltonian:                                 1.407     0.015   0.0% |
 Atomic:                                     0.001     0.001   0.0% |
  XC Correction:                             0.000     0.000   0.0% |
 Calculate atomic Hamiltonians:              0.194     0.194   0.0% |
 Communicate:                                0.324     0.324   0.1% |
 Initialize Hamiltonian:                     0.000     0.000   0.0% |
 Poisson:                                    0.002     0.002   0.0% |
 XC 3D grid:                                 0.871     0.871   0.2% |
LCAO initialization:                         9.302     0.090   0.0% |
 LCAO eigensolver:                           1.281     0.001   0.0% |
  Calculate projections:                     0.000     0.000   0.0% |
  DenseAtomicCorrection:                     0.000     0.000   0.0% |
  Distribute overlap matrix:                 1.014     1.014   0.2% |
  Orbital Layouts:                           0.227     0.227   0.0% |
  Potential matrix:                          0.027     0.027   0.0% |
  Sum over cells:                            0.010     0.010   0.0% |
 LCAO to grid:                               7.624     7.624   1.5% ||
 Set positions (LCAO WFS):                   0.308     0.246   0.0% |
  Basic WFS set positions:                   0.004     0.004   0.0% |
  Basis functions set positions:             0.000     0.000   0.0% |
  P tci:                                     0.001     0.001   0.0% |
  ST tci:                                    0.028     0.028   0.0% |
  mktci:                                     0.028     0.028   0.0% |
PWDescriptor:                                0.382     0.382   0.1% |
Redistribute:                                0.004     0.004   0.0% |
SCF-cycle:                                 503.774     4.333   0.8% |
 Davidson:                                 450.664    63.004  12.1% |----|
  Apply H:                                  32.270    31.337   6.0% |-|
   HMM T:                                    0.932     0.932   0.2% |
  Subspace diag:                            61.754     0.051   0.0% |
   calc_h_matrix:                           40.037     6.890   1.3% ||
    Apply H:                                33.146    32.230   6.2% |-|
     HMM T:                                  0.916     0.916   0.2% |
   diagonalize:                             11.396    11.396   2.2% ||
   rotate_psi:                              10.270    10.270   2.0% ||
  calc. matrices:                          110.919    47.944   9.2% |---|
   Apply H:                                 62.975    61.156  11.7% |----|
    HMM T:                                   1.820     1.820   0.3% |
  diagonalize:                             160.764   160.764  30.8% |-----------|
  rotate_psi:                               21.953    21.953   4.2% |-|
 Density:                                   30.272     0.003   0.0% |
  Atomic density matrices:                   0.491     0.491   0.1% |
  Mix:                                       6.983     6.983   1.3% ||
  Multipole moments:                         0.021     0.021   0.0% |
  Pseudo density:                           22.774    16.887   3.2% ||
   Symmetrize density:                       5.887     5.887   1.1% |
 Hamiltonian:                               17.325     0.357   0.1% |
  Atomic:                                    0.026     0.026   0.0% |
   XC Correction:                            0.000     0.000   0.0% |
  Calculate atomic Hamiltonians:             4.488     4.488   0.9% |
  Communicate:                               7.510     7.510   1.4% ||
  Poisson:                                   0.061     0.061   0.0% |
  XC 3D grid:                                4.882     4.882   0.9% |
 Orthonormalize:                             1.179     0.003   0.0% |
  calc_s_matrix:                             0.133     0.133   0.0% |
  inverse-cholesky:                          0.220     0.220   0.0% |
  projections:                               0.600     0.600   0.1% |
  rotate_psi_s:                              0.223     0.223   0.0% |
Set symmetry:                                0.003     0.003   0.0% |
Other:                                       3.537     3.537   0.7% |
-------------------------------------------------------------------
Total:                                               522.638 100.0%

Memory usage: 418.63 MiB
Date: Thu Feb 23 11:14:41 2023
Surfaces energies:
Au = -78.83032365345912 eV
Pt = -161.84391495171982 eV
Rh = -183.08910115651787 eV
Surfaces energies:
Au = -78.83032365345912 eV
Pt = -161.84391495171982 eV
Rh = -183.08910115651787 eV
Surfaces energies:
Au = -78.83032365345912 eV
Pt = -161.84391495171982 eV
Rh = -183.08910115651787 eV
Surfaces energies:
Au = -78.83032365345912 eV
Pt = -161.84391495171982 eV
Rh = -183.08910115651787 eV
Surfaces energies:
Au = -78.83032365345912 eV
Pt = -161.84391495171982 eV
Rh = -183.08910115651787 eV
Surfaces energies:
Au = -78.83032365345912 eV
Pt = -161.84391495171982 eV
Rh = -183.08910115651787 eV
Surfaces energies:
Au = -78.83032365345912 eV
Pt = -161.84391495171982 eV
Rh = -183.08910115651787 eV
Surfaces energies:
Au = -78.83032365345912 eV
Pt = -161.84391495171982 eV
Rh = -183.08910115651787 eV
Surfaces energies:
Au = -78.83032365345912 eV
Pt = -161.84391495171982 eV
Rh = -183.08910115651787 eV
Surfaces energies:
Au = -78.83032365345912 eV
Pt = -161.84391495171982 eV
Rh = -183.08910115651787 eV
Surfaces energies:
Au = -78.83032365345912 eV
Pt = -161.84391495171982 eV
Rh = -183.08910115651787 eV
Surfaces energies:
Au = -78.83032365345912 eV
Pt = -161.84391495171982 eV
Rh = -183.08910115651787 eV
Surfaces energies:
Au = -78.83032365345912 eV
Pt = -161.84391495171982 eV
Rh = -183.08910115651787 eV
Surfaces energies:
Au = -78.83032365345912 eV
Pt = -161.84391495171982 eV
Rh = -183.08910115651787 eV
Surfaces energies:
Au = -78.83032365345912 eV
Pt = -161.84391495171982 eV
Rh = -183.08910115651787 eV
Surfaces energies:
Au = -78.83032365345912 eV
Pt = -161.84391495171982 eV
Rh = -183.08910115651787 eV
Surfaces energies:
Au = -78.83032365345912 eV
Pt = -161.84391495171982 eV
Rh = -183.08910115651787 eV
Surfaces energies:
Au = -78.83032365345912 eV
Pt = -161.84391495171982 eV
Rh = -183.08910115651787 eV
Surfaces energies:
Au = -78.83032365345912 eV
Pt = -161.84391495171982 eV
Rh = -183.08910115651787 eV
Surfaces energies:
Au = -78.83032365345912 eV
Pt = -161.84391495171982 eV
Rh = -183.08910115651787 eV
Surfaces energies:
Au = -78.83032365345912 eV
Pt = -161.84391495171982 eV
Rh = -183.08910115651787 eV
Surfaces energies:
Au = -78.83032365345912 eV
Pt = -161.84391495171982 eV
Rh = -183.08910115651787 eV
Surfaces energies:
Au = -78.83032365345912 eV
Pt = -161.84391495171982 eV
Rh = -183.08910115651787 eV
Surfaces energies:
Au = -78.83032365345912 eV
Pt = -161.84391495171982 eV
Rh = -183.08910115651787 eV
Surfaces energies:
Au = -78.83032365345912 eV
Pt = -161.84391495171982 eV
Rh = -183.08910115651787 eV
Surfaces energies:
Au = -78.83032365345912 eV
Pt = -161.84391495171982 eV
Rh = -183.08910115651787 eV
Surfaces energies:
Au = -78.83032365345912 eV
Pt = -161.84391495171982 eV
Rh = -183.08910115651787 eV
Surfaces energies:
Au = -78.83032365345912 eV
Pt = -161.84391495171982 eV
Rh = -183.08910115651787 eV
Surfaces energies:
Au = -78.83032365345912 eV
Pt = -161.84391495171982 eV
Rh = -183.08910115651787 eV
Surfaces energies:
Au = -78.83032365345912 eV
Pt = -161.84391495171982 eV
Rh = -183.08910115651787 eV
Surfaces energies:
Au = -78.83032365345912 eV
Pt = -161.84391495171982 eV
Rh = -183.08910115651787 eV
